  30  30   1   0
  0.7305754E+02  0.4450884E-09  0.4450884E-09  0.1277506E-07  0.5000000E-15
  1.000000000000000E-004
  CAR 
 Tetradymite Slab                        
     11.56131646    -25.05227973  301     -0.08775418      1.00000000
    -25.052  0.0000E+00  0.0000E+00
    -24.930  0.0000E+00  0.0000E+00
    -24.808  0.0000E+00  0.0000E+00
    -24.686 -0.1783E-27 -0.2176E-28
    -24.564 -0.2683E-23 -0.3275E-24
    -24.442 -0.1915E-19 -0.2337E-20
    -24.320 -0.6473E-16 -0.7902E-17
    -24.198 -0.1006E-12 -0.1229E-13
    -24.076 -0.7544E-10 -0.9219E-11
    -23.954 -0.2659E-07 -0.3255E-08
    -23.832 -0.4378E-05 -0.5376E-06
    -23.710 -0.3329E-03 -0.4116E-04
    -23.588 -0.1144E-01 -0.1437E-02
    -23.466 -0.1687E+00 -0.2202E-01
    -23.344 -0.9049E+00 -0.1325E+00
    -23.222 -0.9887E-01 -0.1445E+00
    -23.100  0.1060E+02  0.1149E+01
    -22.978  0.2350E+02  0.4018E+01
    -22.855  0.1581E+02  0.5947E+01
    -22.733  0.1926E+01  0.6182E+01
    -22.611 -0.1131E+01  0.6044E+01
    -22.489 -0.3269E+00  0.6004E+01
    -22.367 -0.2982E-01  0.6000E+01
    -22.245 -0.1134E-02  0.6000E+01
    -22.123 -0.1929E-04  0.6000E+01
    -22.001 -0.1511E-06  0.6000E+01
    -21.879 -0.5526E-09  0.6000E+01
    -21.757 -0.9503E-12  0.6000E+01
    -21.635  0.0000E+00  0.6000E+01
    -21.513  0.0000E+00  0.6000E+01
    -21.391  0.0000E+00  0.6000E+01
    -21.269  0.0000E+00  0.6000E+01
    -21.147  0.0000E+00  0.6000E+01
    -21.025  0.0000E+00  0.6000E+01
    -20.903  0.0000E+00  0.6000E+01
    -20.781  0.0000E+00  0.6000E+01
    -20.659  0.0000E+00  0.6000E+01
    -20.537  0.0000E+00  0.6000E+01
    -20.415  0.0000E+00  0.6000E+01
    -20.293  0.0000E+00  0.6000E+01
    -20.170  0.0000E+00  0.6000E+01
    -20.048  0.0000E+00  0.6000E+01
    -19.926  0.0000E+00  0.6000E+01
    -19.804  0.0000E+00  0.6000E+01
    -19.682  0.0000E+00  0.6000E+01
    -19.560  0.0000E+00  0.6000E+01
    -19.438  0.0000E+00  0.6000E+01
    -19.316  0.0000E+00  0.6000E+01
    -19.194  0.0000E+00  0.6000E+01
    -19.072  0.0000E+00  0.6000E+01
    -18.950  0.0000E+00  0.6000E+01
    -18.828  0.0000E+00  0.6000E+01
    -18.706  0.0000E+00  0.6000E+01
    -18.584  0.0000E+00  0.6000E+01
    -18.462  0.0000E+00  0.6000E+01
    -18.340  0.0000E+00  0.6000E+01
    -18.218  0.0000E+00  0.6000E+01
    -18.096  0.0000E+00  0.6000E+01
    -17.974  0.0000E+00  0.6000E+01
    -17.852  0.0000E+00  0.6000E+01
    -17.730  0.0000E+00  0.6000E+01
    -17.608  0.0000E+00  0.6000E+01
    -17.485  0.0000E+00  0.6000E+01
    -17.363  0.0000E+00  0.6000E+01
    -17.241  0.0000E+00  0.6000E+01
    -17.119  0.0000E+00  0.6000E+01
    -16.997  0.0000E+00  0.6000E+01
    -16.875  0.0000E+00  0.6000E+01
    -16.753  0.0000E+00  0.6000E+01
    -16.631  0.0000E+00  0.6000E+01
    -16.509  0.0000E+00  0.6000E+01
    -16.387  0.0000E+00  0.6000E+01
    -16.265  0.0000E+00  0.6000E+01
    -16.143  0.0000E+00  0.6000E+01
    -16.021  0.0000E+00  0.6000E+01
    -15.899  0.0000E+00  0.6000E+01
    -15.777  0.0000E+00  0.6000E+01
    -15.655  0.0000E+00  0.6000E+01
    -15.533  0.0000E+00  0.6000E+01
    -15.411  0.0000E+00  0.6000E+01
    -15.289  0.0000E+00  0.6000E+01
    -15.167  0.0000E+00  0.6000E+01
    -15.045  0.0000E+00  0.6000E+01
    -14.923  0.0000E+00  0.6000E+01
    -14.800  0.0000E+00  0.6000E+01
    -14.678  0.0000E+00  0.6000E+01
    -14.556  0.0000E+00  0.6000E+01
    -14.434 -0.4124E-30  0.6000E+01
    -14.312 -0.5599E-26  0.6000E+01
    -14.190 -0.3634E-22  0.6000E+01
    -14.068 -0.1131E-18  0.6000E+01
    -13.946 -0.1654E-15  0.6000E+01
    -13.824 -0.1181E-12  0.6000E+01
    -13.702 -0.4097E-10  0.6000E+01
    -13.580 -0.6870E-08  0.6000E+01
    -13.458 -0.5552E-06  0.6000E+01
    -13.336 -0.2143E-04  0.6000E+01
    -13.214 -0.3851E-03  0.6000E+01
    -13.092 -0.3011E-02  0.6000E+01
    -12.970 -0.7581E-02  0.5999E+01
    -12.848  0.1547E-01  0.6001E+01
    -12.726  0.1107E+00  0.6014E+01
    -12.604  0.2229E+00  0.6041E+01
    -12.482  0.2685E+00  0.6074E+01
    -12.360  0.3189E+00  0.6113E+01
    -12.238  0.4176E+00  0.6164E+01
    -12.115  0.5409E+00  0.6230E+01
    -11.993  0.6156E+00  0.6305E+01
    -11.871  0.5754E+00  0.6375E+01
    -11.749  0.6218E+00  0.6451E+01
    -11.627  0.6976E+00  0.6536E+01
    -11.505  0.6130E+00  0.6611E+01
    -11.383  0.7051E+00  0.6697E+01
    -11.261  0.9142E+00  0.6809E+01
    -11.139  0.9365E+00  0.6923E+01
    -11.017  0.9023E+00  0.7033E+01
    -10.895  0.7035E+00  0.7119E+01
    -10.773  0.4236E+00  0.7171E+01
    -10.651  0.4216E+00  0.7222E+01
    -10.529  0.8679E+00  0.7328E+01
    -10.407  0.1523E+01  0.7514E+01
    -10.285  0.1636E+01  0.7714E+01
    -10.163  0.1021E+01  0.7838E+01
    -10.041  0.6383E+00  0.7916E+01
     -9.919  0.7184E+00  0.8004E+01
     -9.797  0.7540E+00  0.8096E+01
     -9.675  0.7966E+00  0.8193E+01
     -9.553  0.8766E+00  0.8300E+01
     -9.430  0.8534E+00  0.8404E+01
     -9.308  0.8972E+00  0.8514E+01
     -9.186  0.8650E+00  0.8619E+01
     -9.064  0.6336E+00  0.8697E+01
     -8.942  0.5234E+00  0.8760E+01
     -8.820  0.4622E+00  0.8817E+01
     -8.698  0.2754E+00  0.8850E+01
     -8.576  0.1772E+00  0.8872E+01
     -8.454  0.2117E+00  0.8898E+01
     -8.332  0.1997E+00  0.8922E+01
     -8.210  0.1703E+00  0.8943E+01
     -8.088  0.1775E+00  0.8965E+01
     -7.966  0.1512E+00  0.8983E+01
     -7.844  0.9410E-01  0.8995E+01
     -7.722  0.4167E-01  0.9000E+01
     -7.600  0.6318E-02  0.9001E+01
     -7.478 -0.2838E-02  0.9000E+01
     -7.356 -0.1247E-02  0.9000E+01
     -7.234 -0.1791E-03  0.9000E+01
     -7.112 -0.1164E-04  0.9000E+01
     -6.990 -0.3628E-06  0.9000E+01
     -6.868 -0.5456E-08  0.9000E+01
     -6.745 -0.3933E-10  0.9000E+01
     -6.623 -0.1350E-12  0.9000E+01
     -6.501 -0.2173E-15  0.9000E+01
     -6.379 -0.9240E-33  0.9000E+01
     -6.257 -0.2115E-28  0.9000E+01
     -6.135 -0.2187E-24  0.9000E+01
     -6.013 -0.1076E-20  0.9000E+01
     -5.891 -0.2521E-17  0.9000E+01
     -5.769 -0.2733E-14  0.9000E+01
     -5.647 -0.1457E-11  0.9000E+01
     -5.525 -0.3734E-09  0.9000E+01
     -5.403 -0.4620E-07  0.9000E+01
     -5.281 -0.2766E-05  0.9000E+01
     -5.159 -0.7990E-04  0.9000E+01
     -5.037 -0.1091E-02  0.9000E+01
     -4.915 -0.6535E-02  0.8999E+01
     -4.793 -0.1141E-01  0.8998E+01
     -4.671  0.3861E-01  0.9002E+01
     -4.549  0.2149E+00  0.9029E+01
     -4.427  0.4765E+00  0.9087E+01
     -4.305  0.6708E+00  0.9169E+01
     -4.183  0.6887E+00  0.9253E+01
     -4.060  0.6334E+00  0.9330E+01
     -3.938  0.6272E+00  0.9407E+01
     -3.816  0.5903E+00  0.9479E+01
     -3.694  0.6585E+00  0.9559E+01
     -3.572  0.9351E+00  0.9673E+01
     -3.450  0.1135E+01  0.9812E+01
     -3.328  0.1270E+01  0.9967E+01
     -3.206  0.1402E+01  0.1014E+02
     -3.084  0.1359E+01  0.1030E+02
     -2.962  0.1418E+01  0.1048E+02
     -2.840  0.1652E+01  0.1068E+02
     -2.718  0.1660E+01  0.1088E+02
     -2.596  0.1506E+01  0.1106E+02
     -2.474  0.1404E+01  0.1124E+02
     -2.352  0.1462E+01  0.1141E+02
     -2.230  0.1634E+01  0.1161E+02
     -2.108  0.1643E+01  0.1181E+02
     -1.986  0.1403E+01  0.1199E+02
     -1.864  0.1117E+01  0.1212E+02
     -1.742  0.9722E+00  0.1224E+02
     -1.620  0.9684E+00  0.1236E+02
     -1.498  0.9933E+00  0.1248E+02
     -1.375  0.1093E+01  0.1261E+02
     -1.253  0.1263E+01  0.1277E+02
     -1.131  0.1398E+01  0.1294E+02
     -1.009  0.1531E+01  0.1313E+02
     -0.887  0.1713E+01  0.1333E+02
     -0.765  0.1898E+01  0.1357E+02
     -0.643  0.2101E+01  0.1382E+02
     -0.521  0.2024E+01  0.1407E+02
     -0.399  0.1475E+01  0.1425E+02
     -0.277  0.8297E+00  0.1435E+02
     -0.155  0.3438E+00  0.1439E+02
     -0.033  0.7860E-01  0.1440E+02
      0.089 -0.3685E-02  0.1440E+02
      0.211 -0.9903E-02  0.1440E+02
      0.333 -0.3398E-02  0.1440E+02
      0.455  0.1053E-02  0.1440E+02
      0.577  0.5815E-02  0.1440E+02
      0.699  0.2569E-01  0.1440E+02
      0.821  0.9142E-01  0.1442E+02
      0.943  0.2164E+00  0.1444E+02
      1.065  0.4027E+00  0.1449E+02
      1.187  0.7395E+00  0.1458E+02
      1.310  0.1177E+01  0.1472E+02
      1.432  0.1438E+01  0.1490E+02
      1.554  0.1550E+01  0.1509E+02
      1.676  0.1677E+01  0.1529E+02
      1.798  0.1726E+01  0.1550E+02
      1.920  0.1590E+01  0.1570E+02
      2.042  0.1346E+01  0.1586E+02
      2.164  0.1180E+01  0.1601E+02
      2.286  0.1125E+01  0.1614E+02
      2.408  0.1103E+01  0.1628E+02
      2.530  0.9267E+00  0.1639E+02
      2.652  0.6924E+00  0.1648E+02
      2.774  0.7195E+00  0.1656E+02
      2.896  0.9423E+00  0.1668E+02
      3.018  0.1095E+01  0.1681E+02
      3.140  0.1083E+01  0.1695E+02
      3.262  0.1071E+01  0.1708E+02
      3.384  0.1151E+01  0.1722E+02
      3.506  0.1046E+01  0.1734E+02
      3.628  0.9394E+00  0.1746E+02
      3.750  0.1095E+01  0.1759E+02
      3.872  0.1226E+01  0.1774E+02
      3.995  0.1071E+01  0.1787E+02
      4.117  0.8640E+00  0.1798E+02
      4.239  0.8780E+00  0.1808E+02
      4.361  0.8654E+00  0.1819E+02
      4.483  0.7266E+00  0.1828E+02
      4.605  0.6626E+00  0.1836E+02
      4.727  0.6011E+00  0.1843E+02
      4.849  0.4585E+00  0.1849E+02
      4.971  0.3966E+00  0.1854E+02
      5.093  0.6024E+00  0.1861E+02
      5.215  0.1027E+01  0.1874E+02
      5.337  0.1287E+01  0.1889E+02
      5.459  0.1184E+01  0.1904E+02
      5.581  0.1029E+01  0.1916E+02
      5.703  0.9463E+00  0.1928E+02
      5.825  0.8696E+00  0.1939E+02
      5.947  0.9294E+00  0.1950E+02
      6.069  0.1207E+01  0.1965E+02
      6.191  0.1408E+01  0.1982E+02
      6.313  0.1364E+01  0.1998E+02
      6.435  0.1368E+01  0.2015E+02
      6.557  0.1485E+01  0.2033E+02
      6.680  0.1478E+01  0.2051E+02
      6.802  0.1387E+01  0.2068E+02
      6.924  0.1465E+01  0.2086E+02
      7.046  0.1649E+01  0.2106E+02
      7.168  0.1712E+01  0.2127E+02
      7.290  0.1719E+01  0.2148E+02
      7.412  0.1778E+01  0.2170E+02
      7.534  0.1828E+01  0.2192E+02
      7.656  0.1948E+01  0.2216E+02
      7.778  0.2129E+01  0.2242E+02
      7.900  0.2130E+01  0.2268E+02
      8.022  0.2098E+01  0.2294E+02
      8.144  0.2210E+01  0.2320E+02
      8.266  0.2210E+01  0.2347E+02
      8.388  0.2046E+01  0.2372E+02
      8.510  0.1993E+01  0.2397E+02
      8.632  0.1957E+01  0.2421E+02
      8.754  0.1811E+01  0.2443E+02
      8.876  0.1717E+01  0.2464E+02
      8.998  0.1743E+01  0.2485E+02
      9.120  0.1914E+01  0.2508E+02
      9.242  0.1912E+01  0.2532E+02
      9.365  0.1376E+01  0.2548E+02
      9.487  0.6689E+00  0.2557E+02
      9.609  0.2528E+00  0.2560E+02
      9.731  0.5252E-01  0.2560E+02
      9.853 -0.1507E-01  0.2560E+02
      9.975 -0.9742E-02  0.2560E+02
     10.097 -0.1607E-02  0.2560E+02
     10.219 -0.1076E-03  0.2560E+02
     10.341 -0.3200E-05  0.2560E+02
     10.463 -0.4367E-07  0.2560E+02
     10.585 -0.2775E-09  0.2560E+02
     10.707 -0.8269E-12  0.2560E+02
     10.829 -0.1160E-14  0.2560E+02
     10.951  0.0000E+00  0.2560E+02
     11.073  0.0000E+00  0.2560E+02
     11.195  0.0000E+00  0.2560E+02
     11.317  0.0000E+00  0.2560E+02
     11.439  0.0000E+00  0.2560E+02
     11.561  0.0000E+00  0.2560E+02
     11.56131646    -25.05227973  301     -0.08775418      1.00000000
    -25.052  0.0000E+00  0.0000E+00  0.0000E+00  0.0000E+00  0.0000E+00  0.0000E+00  0.0000E+00  0.0000E+00  0.0000E+00
    -24.930  0.0000E+00  0.0000E+00  0.0000E+00  0.0000E+00  0.0000E+00  0.0000E+00  0.0000E+00  0.0000E+00  0.0000E+00
    -24.808  0.0000E+00  0.0000E+00  0.0000E+00  0.0000E+00  0.0000E+00  0.0000E+00  0.0000E+00  0.0000E+00  0.0000E+00
    -24.686 -0.1827E-34 -0.2077E-34 -0.9275E-35 -0.2565E-34 -0.8295E-29 -0.6828E-29 -0.4434E-29 -0.7431E-29 -0.7131E-29
    -24.564 -0.3246E-30 -0.3741E-30 -0.1740E-30 -0.4586E-30 -0.1492E-24 -0.1251E-24 -0.8396E-25 -0.1351E-24 -0.1298E-24
    -24.442 -0.2726E-26 -0.3183E-26 -0.1542E-26 -0.3874E-26 -0.1269E-20 -0.1082E-20 -0.7511E-21 -0.1161E-20 -0.1116E-20
    -24.320 -0.1080E-22 -0.1278E-22 -0.6454E-23 -0.1545E-22 -0.5093E-17 -0.4419E-17 -0.3170E-17 -0.4705E-17 -0.4534E-17
    -24.198 -0.1992E-19 -0.2411E-19 -0.1272E-19 -0.2886E-19 -0.9582E-14 -0.8490E-14 -0.6298E-14 -0.8954E-14 -0.8659E-14
    -24.076 -0.1712E-16 -0.2078E-16 -0.1141E-16 -0.2477E-16 -0.8283E-11 -0.7429E-11 -0.5692E-11 -0.7802E-11 -0.7548E-11
    -23.954 -0.6992E-14 -0.8591E-14 -0.4922E-14 -0.1017E-13 -0.3426E-08 -0.3122E-08 -0.2471E-08 -0.3256E-08 -0.3158E-08
    -23.832 -0.1327E-11 -0.1650E-11 -0.9865E-12 -0.1940E-11 -0.6588E-06 -0.6094E-06 -0.4986E-06 -0.6317E-06 -0.6145E-06
    -23.710 -0.1158E-09 -0.1458E-09 -0.9099E-10 -0.1702E-09 -0.5827E-04 -0.5471E-04 -0.4627E-04 -0.5635E-04 -0.5500E-04
    -23.588 -0.4556E-08 -0.5804E-08 -0.3786E-08 -0.6729E-08 -0.2324E-02 -0.2214E-02 -0.1937E-02 -0.2265E-02 -0.2220E-02
    -23.466 -0.7713E-07 -0.9949E-07 -0.6807E-07 -0.1145E-06 -0.3993E-01 -0.3860E-01 -0.3503E-01 -0.3924E-01 -0.3863E-01
    -23.344 -0.4896E-06 -0.6412E-06 -0.4659E-06 -0.7308E-06 -0.2583E+00 -0.2541E+00 -0.2414E+00 -0.2562E+00 -0.2540E+00
    -23.222 -0.3655E-06 -0.5178E-06 -0.4950E-06 -0.5618E-06 -0.2133E+00 -0.2274E+00 -0.2630E+00 -0.2207E+00 -0.2267E+00
    -23.100  0.5379E-05  0.6999E-05  0.4938E-05  0.8012E-05  0.2813E+01  0.2747E+01  0.2550E+01  0.2780E+01  0.2745E+01
    -22.978  0.1411E-04  0.1869E-04  0.1427E-04  0.2114E-04  0.7557E+01  0.7529E+01  0.7430E+01  0.7544E+01  0.7527E+01
    -22.855  0.1075E-04  0.1443E-04  0.1172E-04  0.1618E-04  0.5869E+01  0.5932E+01  0.6136E+01  0.5897E+01  0.5938E+01
    -22.733  0.1711E-05  0.2360E-05  0.2175E-05  0.2595E-05  0.9738E+00  0.1012E+01  0.1151E+01  0.9902E+00  0.1018E+01
    -22.611 -0.7263E-06 -0.9674E-06 -0.7514E-06 -0.1091E-05 -0.3916E+00 -0.3925E+00 -0.3920E+00 -0.3923E+00 -0.3920E+00
    -22.489 -0.2395E-06 -0.3245E-06 -0.2767E-06 -0.3614E-06 -0.1327E+00 -0.1355E+00 -0.1455E+00 -0.1339E+00 -0.1359E+00
    -22.367 -0.2325E-07 -0.3178E-07 -0.2846E-07 -0.3514E-07 -0.1308E-01 -0.1346E-01 -0.1502E-01 -0.1323E-01 -0.1355E-01
    -22.245 -0.9220E-09 -0.1269E-08 -0.1184E-08 -0.1395E-08 -0.5252E-03 -0.5440E-03 -0.6270E-03 -0.5321E-03 -0.5497E-03
    -22.123 -0.1616E-10 -0.2236E-10 -0.2169E-10 -0.2447E-10 -0.9314E-05 -0.9694E-05 -0.1151E-04 -0.9442E-05 -0.9835E-05
    -22.001 -0.1291E-12 -0.1795E-12 -0.1807E-12 -0.1955E-12 -0.7524E-07 -0.7860E-07 -0.9613E-07 -0.7625E-07 -0.8012E-07
    -21.879 -0.4774E-15 -0.6663E-15 -0.6950E-15 -0.7223E-15 -0.2811E-09 -0.2945E-09 -0.3705E-09 -0.2846E-09 -0.3017E-09
    -21.757 -0.8235E-18 -0.1153E-17 -0.1246E-17 -0.1245E-17 -0.4898E-12 -0.5143E-12 -0.6655E-12 -0.4951E-12 -0.5296E-12
    -21.635  0.0000E+00  0.0000E+00  0.0000E+00  0.0000E+00  0.0000E+00  0.0000E+00  0.0000E+00  0.0000E+00  0.0000E+00
    -21.513  0.0000E+00  0.0000E+00  0.0000E+00  0.0000E+00  0.0000E+00  0.0000E+00  0.0000E+00  0.0000E+00  0.0000E+00
    -21.391  0.0000E+00  0.0000E+00  0.0000E+00  0.0000E+00  0.0000E+00  0.0000E+00  0.0000E+00  0.0000E+00  0.0000E+00
    -21.269  0.0000E+00  0.0000E+00  0.0000E+00  0.0000E+00  0.0000E+00  0.0000E+00  0.0000E+00  0.0000E+00  0.0000E+00
    -21.147  0.0000E+00  0.0000E+00  0.0000E+00  0.0000E+00  0.0000E+00  0.0000E+00  0.0000E+00  0.0000E+00  0.0000E+00
    -21.025  0.0000E+00  0.0000E+00  0.0000E+00  0.0000E+00  0.0000E+00  0.0000E+00  0.0000E+00  0.0000E+00  0.0000E+00
    -20.903  0.0000E+00  0.0000E+00  0.0000E+00  0.0000E+00  0.0000E+00  0.0000E+00  0.0000E+00  0.0000E+00  0.0000E+00
    -20.781  0.0000E+00  0.0000E+00  0.0000E+00  0.0000E+00  0.0000E+00  0.0000E+00  0.0000E+00  0.0000E+00  0.0000E+00
    -20.659  0.0000E+00  0.0000E+00  0.0000E+00  0.0000E+00  0.0000E+00  0.0000E+00  0.0000E+00  0.0000E+00  0.0000E+00
    -20.537  0.0000E+00  0.0000E+00  0.0000E+00  0.0000E+00  0.0000E+00  0.0000E+00  0.0000E+00  0.0000E+00  0.0000E+00
    -20.415  0.0000E+00  0.0000E+00  0.0000E+00  0.0000E+00  0.0000E+00  0.0000E+00  0.0000E+00  0.0000E+00  0.0000E+00
    -20.293  0.0000E+00  0.0000E+00  0.0000E+00  0.0000E+00  0.0000E+00  0.0000E+00  0.0000E+00  0.0000E+00  0.0000E+00
    -20.170  0.0000E+00  0.0000E+00  0.0000E+00  0.0000E+00  0.0000E+00  0.0000E+00  0.0000E+00  0.0000E+00  0.0000E+00
    -20.048  0.0000E+00  0.0000E+00  0.0000E+00  0.0000E+00  0.0000E+00  0.0000E+00  0.0000E+00  0.0000E+00  0.0000E+00
    -19.926  0.0000E+00  0.0000E+00  0.0000E+00  0.0000E+00  0.0000E+00  0.0000E+00  0.0000E+00  0.0000E+00  0.0000E+00
    -19.804  0.0000E+00  0.0000E+00  0.0000E+00  0.0000E+00  0.0000E+00  0.0000E+00  0.0000E+00  0.0000E+00  0.0000E+00
    -19.682  0.0000E+00  0.0000E+00  0.0000E+00  0.0000E+00  0.0000E+00  0.0000E+00  0.0000E+00  0.0000E+00  0.0000E+00
    -19.560  0.0000E+00  0.0000E+00  0.0000E+00  0.0000E+00  0.0000E+00  0.0000E+00  0.0000E+00  0.0000E+00  0.0000E+00
    -19.438  0.0000E+00  0.0000E+00  0.0000E+00  0.0000E+00  0.0000E+00  0.0000E+00  0.0000E+00  0.0000E+00  0.0000E+00
    -19.316  0.0000E+00  0.0000E+00  0.0000E+00  0.0000E+00  0.0000E+00  0.0000E+00  0.0000E+00  0.0000E+00  0.0000E+00
    -19.194  0.0000E+00  0.0000E+00  0.0000E+00  0.0000E+00  0.0000E+00  0.0000E+00  0.0000E+00  0.0000E+00  0.0000E+00
    -19.072  0.0000E+00  0.0000E+00  0.0000E+00  0.0000E+00  0.0000E+00  0.0000E+00  0.0000E+00  0.0000E+00  0.0000E+00
    -18.950  0.0000E+00  0.0000E+00  0.0000E+00  0.0000E+00  0.0000E+00  0.0000E+00  0.0000E+00  0.0000E+00  0.0000E+00
    -18.828  0.0000E+00  0.0000E+00  0.0000E+00  0.0000E+00  0.0000E+00  0.0000E+00  0.0000E+00  0.0000E+00  0.0000E+00
    -18.706  0.0000E+00  0.0000E+00  0.0000E+00  0.0000E+00  0.0000E+00  0.0000E+00  0.0000E+00  0.0000E+00  0.0000E+00
    -18.584  0.0000E+00  0.0000E+00  0.0000E+00  0.0000E+00  0.0000E+00  0.0000E+00  0.0000E+00  0.0000E+00  0.0000E+00
    -18.462  0.0000E+00  0.0000E+00  0.0000E+00  0.0000E+00  0.0000E+00  0.0000E+00  0.0000E+00  0.0000E+00  0.0000E+00
    -18.340  0.0000E+00  0.0000E+00  0.0000E+00  0.0000E+00  0.0000E+00  0.0000E+00  0.0000E+00  0.0000E+00  0.0000E+00
    -18.218  0.0000E+00  0.0000E+00  0.0000E+00  0.0000E+00  0.0000E+00  0.0000E+00  0.0000E+00  0.0000E+00  0.0000E+00
    -18.096  0.0000E+00  0.0000E+00  0.0000E+00  0.0000E+00  0.0000E+00  0.0000E+00  0.0000E+00  0.0000E+00  0.0000E+00
    -17.974  0.0000E+00  0.0000E+00  0.0000E+00  0.0000E+00  0.0000E+00  0.0000E+00  0.0000E+00  0.0000E+00  0.0000E+00
    -17.852  0.0000E+00  0.0000E+00  0.0000E+00  0.0000E+00  0.0000E+00  0.0000E+00  0.0000E+00  0.0000E+00  0.0000E+00
    -17.730  0.0000E+00  0.0000E+00  0.0000E+00  0.0000E+00  0.0000E+00  0.0000E+00  0.0000E+00  0.0000E+00  0.0000E+00
    -17.608  0.0000E+00  0.0000E+00  0.0000E+00  0.0000E+00  0.0000E+00  0.0000E+00  0.0000E+00  0.0000E+00  0.0000E+00
    -17.485  0.0000E+00  0.0000E+00  0.0000E+00  0.0000E+00  0.0000E+00  0.0000E+00  0.0000E+00  0.0000E+00  0.0000E+00
    -17.363  0.0000E+00  0.0000E+00  0.0000E+00  0.0000E+00  0.0000E+00  0.0000E+00  0.0000E+00  0.0000E+00  0.0000E+00
    -17.241  0.0000E+00  0.0000E+00  0.0000E+00  0.0000E+00  0.0000E+00  0.0000E+00  0.0000E+00  0.0000E+00  0.0000E+00
    -17.119  0.0000E+00  0.0000E+00  0.0000E+00  0.0000E+00  0.0000E+00  0.0000E+00  0.0000E+00  0.0000E+00  0.0000E+00
    -16.997  0.0000E+00  0.0000E+00  0.0000E+00  0.0000E+00  0.0000E+00  0.0000E+00  0.0000E+00  0.0000E+00  0.0000E+00
    -16.875  0.0000E+00  0.0000E+00  0.0000E+00  0.0000E+00  0.0000E+00  0.0000E+00  0.0000E+00  0.0000E+00  0.0000E+00
    -16.753  0.0000E+00  0.0000E+00  0.0000E+00  0.0000E+00  0.0000E+00  0.0000E+00  0.0000E+00  0.0000E+00  0.0000E+00
    -16.631  0.0000E+00  0.0000E+00  0.0000E+00  0.0000E+00  0.0000E+00  0.0000E+00  0.0000E+00  0.0000E+00  0.0000E+00
    -16.509  0.0000E+00  0.0000E+00  0.0000E+00  0.0000E+00  0.0000E+00  0.0000E+00  0.0000E+00  0.0000E+00  0.0000E+00
    -16.387  0.0000E+00  0.0000E+00  0.0000E+00  0.0000E+00  0.0000E+00  0.0000E+00  0.0000E+00  0.0000E+00  0.0000E+00
    -16.265  0.0000E+00  0.0000E+00  0.0000E+00  0.0000E+00  0.0000E+00  0.0000E+00  0.0000E+00  0.0000E+00  0.0000E+00
    -16.143  0.0000E+00  0.0000E+00  0.0000E+00  0.0000E+00  0.0000E+00  0.0000E+00  0.0000E+00  0.0000E+00  0.0000E+00
    -16.021  0.0000E+00  0.0000E+00  0.0000E+00  0.0000E+00  0.0000E+00  0.0000E+00  0.0000E+00  0.0000E+00  0.0000E+00
    -15.899  0.0000E+00  0.0000E+00  0.0000E+00  0.0000E+00  0.0000E+00  0.0000E+00  0.0000E+00  0.0000E+00  0.0000E+00
    -15.777  0.0000E+00  0.0000E+00  0.0000E+00  0.0000E+00  0.0000E+00  0.0000E+00  0.0000E+00  0.0000E+00  0.0000E+00
    -15.655  0.0000E+00  0.0000E+00  0.0000E+00  0.0000E+00  0.0000E+00  0.0000E+00  0.0000E+00  0.0000E+00  0.0000E+00
    -15.533  0.0000E+00  0.0000E+00  0.0000E+00  0.0000E+00  0.0000E+00  0.0000E+00  0.0000E+00  0.0000E+00  0.0000E+00
    -15.411  0.0000E+00  0.0000E+00  0.0000E+00  0.0000E+00  0.0000E+00  0.0000E+00  0.0000E+00  0.0000E+00  0.0000E+00
    -15.289  0.0000E+00  0.0000E+00  0.0000E+00  0.0000E+00  0.0000E+00  0.0000E+00  0.0000E+00  0.0000E+00  0.0000E+00
    -15.167  0.0000E+00  0.0000E+00  0.0000E+00  0.0000E+00  0.0000E+00  0.0000E+00  0.0000E+00  0.0000E+00  0.0000E+00
    -15.045  0.0000E+00  0.0000E+00  0.0000E+00  0.0000E+00  0.0000E+00  0.0000E+00  0.0000E+00  0.0000E+00  0.0000E+00
    -14.923  0.0000E+00  0.0000E+00  0.0000E+00  0.0000E+00  0.0000E+00  0.0000E+00  0.0000E+00  0.0000E+00  0.0000E+00
    -14.800  0.0000E+00  0.0000E+00  0.0000E+00  0.0000E+00  0.0000E+00  0.0000E+00  0.0000E+00  0.0000E+00  0.0000E+00
    -14.678  0.0000E+00  0.0000E+00  0.0000E+00  0.0000E+00  0.0000E+00  0.0000E+00  0.0000E+00  0.0000E+00  0.0000E+00
    -14.556  0.0000E+00  0.0000E+00  0.0000E+00  0.0000E+00  0.0000E+00  0.0000E+00  0.0000E+00  0.0000E+00  0.0000E+00
    -14.434 -0.1279E-31 -0.1604E-36 -0.2419E-36 -0.4812E-36 -0.1976E-38 -0.1950E-39 -0.6475E-36 -0.5845E-39 -0.6589E-39
    -14.312 -0.2079E-27 -0.4631E-32 -0.3711E-32 -0.1389E-31 -0.6161E-34 -0.5560E-35 -0.1071E-31 -0.1666E-34 -0.2055E-34
    -14.190 -0.1621E-23 -0.4949E-28 -0.2781E-28 -0.1483E-27 -0.6712E-30 -0.5917E-31 -0.8494E-28 -0.1773E-30 -0.2239E-30
    -14.068 -0.6140E-20 -0.2547E-24 -0.1033E-24 -0.7621E-24 -0.3524E-26 -0.3045E-27 -0.3272E-24 -0.9122E-27 -0.1176E-26
    -13.946 -0.1118E-16 -0.6319E-21 -0.1888E-21 -0.1885E-20 -0.8914E-23 -0.7580E-24 -0.6059E-21 -0.2270E-23 -0.2980E-23
    -13.824 -0.9870E-14 -0.7320E-18 -0.1700E-18 -0.2171E-17 -0.1052E-19 -0.8850E-21 -0.5412E-18 -0.2648E-20 -0.3527E-20
    -13.702 -0.4313E-11 -0.4189E-15 -0.7716E-16 -0.1230E-14 -0.6112E-17 -0.5122E-18 -0.2389E-15 -0.1531E-17 -0.2061E-17
    -13.580 -0.9184E-09 -0.1155E-12 -0.1726E-13 -0.3321E-12 -0.1701E-14 -0.1435E-15 -0.5123E-13 -0.4272E-15 -0.5803E-15
    -13.458 -0.9484E-07 -0.1541E-10 -0.1886E-11 -0.4253E-10 -0.2264E-12 -0.1952E-13 -0.5306E-11 -0.5776E-13 -0.7896E-13
    -13.336 -0.4696E-05 -0.1001E-08 -0.9908E-10 -0.2557E-08 -0.1442E-10 -0.1305E-11 -0.2623E-09 -0.3815E-11 -0.5241E-11
    -13.214 -0.1090E-03 -0.3206E-07 -0.2440E-08 -0.7120E-07 -0.4423E-09 -0.4375E-10 -0.6031E-08 -0.1254E-09 -0.1724E-09
    -13.092 -0.1120E-02 -0.5081E-06 -0.2673E-07 -0.8948E-06 -0.6620E-08 -0.7492E-09 -0.6050E-07 -0.2104E-08 -0.2846E-08
    -12.970 -0.4233E-02 -0.3810E-05 -0.1125E-06 -0.4747E-05 -0.4861E-07 -0.6366E-08 -0.2096E-06 -0.1805E-07 -0.2281E-07
    -12.848  0.1876E-02 -0.1024E-04 -0.1005E-06 -0.6892E-05 -0.1601E-06 -0.2141E-07  0.2222E-06 -0.7358E-07 -0.6917E-07
    -12.726  0.4742E-01  0.1535E-04 -0.8452E-06  0.2806E-04 -0.8230E-07  0.1148E-07  0.2602E-05 -0.1063E-06  0.7931E-07
    -12.604  0.1172E+00  0.1290E-03 -0.1255E-04  0.1444E-03  0.1033E-05  0.1374E-06  0.4949E-05  0.1592E-06  0.7957E-06
    -12.482  0.1506E+00  0.3083E-03 -0.3707E-04  0.3248E-03  0.5093E-05 -0.1634E-06  0.3953E-05  0.1620E-05  0.1484E-05
    -12.360  0.1746E+00  0.5272E-03  0.8018E-04  0.5615E-03  0.1395E-04 -0.3281E-06  0.7085E-05  0.6131E-05  0.2363E-05
    -12.238  0.2359E+00  0.6846E-03  0.6029E-03  0.7964E-03  0.2464E-04  0.5595E-05  0.2584E-04  0.1617E-04  0.6882E-05
    -12.115  0.3161E+00  0.1065E-02  0.1255E-02  0.1047E-02  0.4956E-04  0.2319E-04  0.4620E-04  0.4313E-04  0.1762E-04
    -11.993  0.3813E+00  0.1595E-02  0.1499E-02  0.1497E-02  0.9104E-04  0.4978E-04  0.4724E-04  0.8609E-04  0.3255E-04
    -11.871  0.3672E+00  0.1561E-02  0.1448E-02  0.1785E-02  0.1187E-03  0.7665E-04  0.3731E-04  0.1237E-03  0.4725E-04
    -11.749  0.3784E+00  0.2045E-02  0.1320E-02  0.2063E-02  0.1801E-03  0.1038E-03  0.2717E-04  0.1821E-03  0.6350E-04
    -11.627  0.4511E+00  0.2862E-02  0.1300E-02  0.2588E-02  0.2771E-03  0.1432E-03  0.2034E-04  0.2659E-03  0.8581E-04
    -11.505  0.4126E+00  0.2358E-02  0.1193E-02  0.2590E-02  0.2965E-03  0.1589E-03  0.1472E-04  0.2960E-03  0.9852E-04
    -11.383  0.4420E+00  0.2656E-02  0.1107E-02  0.2653E-02  0.3957E-03  0.2049E-03  0.1003E-04  0.4011E-03  0.1314E-03
    -11.261  0.6155E+00  0.3861E-02  0.1184E-02  0.3162E-02  0.6741E-03  0.2749E-03  0.9347E-05  0.6687E-03  0.1857E-03
    -11.139  0.6862E+00  0.3286E-02  0.1074E-02  0.2945E-02  0.8828E-03  0.3406E-03  0.6708E-05  0.8780E-03  0.2535E-03
    -11.017  0.7261E+00  0.2718E-02  0.8835E-03  0.2397E-02  0.9393E-03  0.4244E-03  0.5138E-05  0.9479E-03  0.3193E-03
    -10.895  0.6438E+00  0.2693E-02  0.2934E-03  0.1631E-02  0.7336E-03  0.3172E-03  0.7236E-05  0.7488E-03  0.2405E-03
    -10.773  0.4084E+00  0.1702E-02  0.6152E-03  0.3806E-03  0.3481E-03  0.1156E-03  0.9224E-05  0.3612E-03  0.8595E-04
    -10.651  0.2178E+00  0.6959E-03  0.5177E-02  0.2340E-03  0.1018E-03  0.3676E-04  0.2062E-04  0.1350E-03  0.1173E-04
    -10.529  0.9948E-01  0.1500E-02  0.1412E-01  0.4964E-02  0.2036E-03  0.4344E-03  0.4419E-04  0.4529E-03  0.2009E-03
    -10.407  0.3444E-01  0.3364E-02  0.2160E-01  0.1418E-01  0.7811E-03  0.2057E-02  0.6109E-04  0.1637E-02  0.1031E-02
    -10.285  0.1879E-01  0.3729E-02  0.2052E-01  0.1881E-01  0.1297E-02  0.4008E-02  0.5419E-04  0.2628E-02  0.2059E-02
    -10.163  0.3908E-01  0.3179E-02  0.1028E-01  0.1339E-01  0.1027E-02  0.3513E-02  0.2736E-04  0.2031E-02  0.1844E-02
    -10.041  0.1314E+00  0.4575E-02  0.1531E-02  0.6986E-02  0.6650E-03  0.1513E-02  0.1031E-04  0.1378E-02  0.8334E-03
     -9.919  0.2609E+00  0.6748E-02 -0.9311E-04  0.7041E-02  0.7328E-03  0.7549E-03  0.1311E-04  0.1707E-02  0.4374E-03
     -9.797  0.3158E+00  0.6296E-02  0.6510E-03  0.8086E-02  0.6982E-03  0.8317E-03  0.1690E-04  0.1732E-02  0.4664E-03
     -9.675  0.3555E+00  0.5948E-02  0.1019E-02  0.6626E-02  0.6732E-03  0.8216E-03  0.1456E-04  0.1696E-02  0.4497E-03
     -9.553  0.4298E+00  0.6366E-02  0.1334E-02  0.5116E-02  0.8446E-03  0.8744E-03  0.1092E-04  0.2156E-02  0.4687E-03
     -9.430  0.4306E+00  0.4739E-02  0.1705E-02  0.4076E-02  0.8872E-03  0.9208E-03  0.5935E-05  0.2331E-02  0.4665E-03
     -9.308  0.4587E+00  0.4493E-02  0.2455E-02  0.4188E-02  0.7243E-03  0.7916E-03  0.2922E-05  0.1997E-02  0.3927E-03
     -9.186  0.4910E+00  0.5414E-02  0.3735E-02  0.4292E-02  0.5203E-03  0.5815E-03  0.5394E-05  0.1475E-02  0.3108E-03
     -9.064  0.3861E+00  0.3316E-02  0.4938E-02  0.3003E-02  0.2974E-03  0.3586E-03  0.1260E-04  0.7857E-03  0.2024E-03
     -8.942  0.3344E+00  0.1977E-02  0.5013E-02  0.2467E-02  0.1555E-03  0.2185E-03  0.2112E-04  0.4211E-03  0.1163E-03
     -8.820  0.3237E+00  0.2880E-02  0.3433E-02  0.2477E-02  0.8876E-04  0.1157E-03  0.2167E-04  0.3370E-03  0.5500E-04
     -8.698  0.2008E+00  0.2335E-02  0.1272E-02  0.1702E-02  0.3462E-04  0.3881E-04  0.1131E-04  0.1849E-03  0.1408E-04
     -8.576  0.1101E+00  0.1072E-02  0.7361E-04  0.1301E-02  0.7615E-05  0.1404E-04  0.2786E-05  0.6894E-04  0.1307E-05
     -8.454  0.1376E+00  0.1244E-02 -0.8077E-04  0.1531E-02  0.5842E-05  0.1138E-04  0.2422E-05  0.6411E-04  0.2078E-05
     -8.332  0.1392E+00  0.1349E-02 -0.2428E-05  0.1248E-02  0.5105E-05  0.5331E-05  0.4721E-05  0.5454E-04  0.2023E-05
     -8.210  0.1130E+00  0.7763E-03  0.1967E-04  0.8026E-03  0.2228E-05  0.2964E-05  0.9629E-05  0.2312E-04  0.1049E-05
     -8.088  0.1221E+00  0.5502E-03  0.2926E-04  0.6458E-03  0.8648E-06  0.3720E-05  0.1702E-04  0.8744E-05  0.7222E-06
     -7.966  0.1128E+00  0.4195E-03  0.3317E-04  0.4075E-03  0.3793E-06  0.2230E-05  0.2098E-04  0.4492E-05  0.3545E-06
     -7.844  0.7514E-01  0.1413E-03  0.2935E-04  0.1708E-03  0.8771E-07  0.4143E-06  0.1848E-04  0.9499E-06  0.4841E-07
     -7.722  0.3342E-01  0.5257E-05  0.1862E-04  0.5584E-04 -0.8971E-08 -0.6746E-07  0.9639E-05 -0.1594E-06 -0.1972E-07
     -7.600  0.4480E-02 -0.9203E-05  0.4435E-05  0.9543E-06 -0.1252E-07 -0.4470E-07  0.1606E-05 -0.1183E-06 -0.9143E-08
     -7.478 -0.2366E-02 -0.3632E-05 -0.8868E-06 -0.6736E-05 -0.3753E-08 -0.1220E-07 -0.5671E-06 -0.3494E-07 -0.1780E-08
     -7.356 -0.9480E-03 -0.6719E-06 -0.5557E-06 -0.1776E-05 -0.5202E-09 -0.2020E-08 -0.2613E-06 -0.5982E-08 -0.1985E-09
     -7.234 -0.1290E-03 -0.5800E-07 -0.8705E-07 -0.1679E-06 -0.3498E-10 -0.1682E-09 -0.3780E-07 -0.5029E-09 -0.1222E-10
     -7.112 -0.8015E-05 -0.2287E-08 -0.5889E-08 -0.6792E-08 -0.1142E-11 -0.6535E-11 -0.2456E-08 -0.1958E-10 -0.3866E-12
     -6.990 -0.2404E-06 -0.4142E-10 -0.1869E-09 -0.1239E-09 -0.1804E-13 -0.1174E-12 -0.7595E-10 -0.3520E-12 -0.6039E-14
     -6.868 -0.3498E-08 -0.3476E-12 -0.2826E-11 -0.1042E-11 -0.1370E-15 -0.9802E-15 -0.1126E-11 -0.2940E-14 -0.4570E-16
     -6.745 -0.2450E-10 -0.1362E-14 -0.2033E-13 -0.4084E-14 -0.4982E-18 -0.3827E-17 -0.7981E-14 -0.1148E-16 -0.1661E-18
     -6.623 -0.8206E-13 -0.2502E-17 -0.6937E-16 -0.7505E-17 -0.8644E-21 -0.7014E-20 -0.2689E-16 -0.2103E-19 -0.2880E-21
     -6.501 -0.1293E-15 -0.4066E-27 -0.1110E-18 -0.1220E-26 -0.4250E-29 -0.2680E-29 -0.4272E-19 -0.8050E-29 -0.1417E-29
     -6.379 -0.1307E-37 -0.2100E-35 -0.5965E-35 -0.6299E-35 -0.5679E-38 -0.1689E-37 -0.1338E-37 -0.5067E-37 -0.1894E-38
     -6.257 -0.3239E-33 -0.5910E-31 -0.1679E-30 -0.1779E-30 -0.1605E-33 -0.4673E-33 -0.3700E-33 -0.1399E-32 -0.6100E-34
     -6.135 -0.3412E-29 -0.6435E-27 -0.1829E-26 -0.1940E-26 -0.1758E-29 -0.5074E-29 -0.4016E-29 -0.1518E-28 -0.7068E-30
     -6.013 -0.1714E-25 -0.3370E-23 -0.9577E-23 -0.1018E-22 -0.9290E-26 -0.2650E-25 -0.2097E-25 -0.7914E-25 -0.4019E-26