   30   30   20    1
  0.7305754E+02  0.4450884E-09  0.4450884E-09  0.1277506E-07  0.5000000E-15
  1.000000000000000E-004
  CAR 
 Tetradymite Slab                        
    288     19    256
 
  0.0000000E+00  0.0000000E+00  0.0000000E+00  0.6944444E-02
    1      -23.044402   1.000000
    2      -23.044399   1.000000
    3      -23.043534   1.000000
    4      -23.043532   1.000000
    5      -23.042957   1.000000
    6      -23.042954   1.000000
    7      -23.042377   1.000000
    8      -23.042376   1.000000
    9      -23.040205   1.000000
   10      -23.039321   1.000000
   11      -23.039030   1.000000
   12      -23.038483   1.000000
   13      -23.035552   1.000000
   14      -23.035551   1.000000
   15      -23.034702   1.000000
   16      -23.034700   1.000000
   17      -23.034200   1.000000
   18      -23.034199   1.000000
   19      -23.033638   1.000000
   20      -23.033636   1.000000
   21      -23.027488   1.000000
   22      -23.027485   1.000000
   23      -23.027349   1.000000
   24      -23.027347   1.000000
   25      -23.025998   1.000000
   26      -23.025997   1.000000
   27      -23.025072   1.000000
   28      -23.025072   1.000000
   29      -23.023406   1.000000
   30      -23.023161   1.000000
   31      -23.022088   1.000000
   32      -23.021082   1.000000
   33      -23.018707   1.000000
   34      -23.018707   1.000000
   35      -23.018509   1.000000
   36      -23.018508   1.000000
   37      -23.017264   1.000000
   38      -23.017262   1.000000
   39      -23.016297   1.000000
   40      -23.016294   1.000000
   41      -23.009045   1.000000
   42      -23.009042   1.000000
   43      -23.007683   1.000000
   44      -23.007680   1.000000
   45      -23.003357   1.000000
   46      -23.002067   1.000000
   47      -22.999378   1.000000
   48      -22.999377   1.000000
   49      -22.998954   1.000000
   50      -22.998954   1.000000
   51      -22.998078   1.000000
   52      -22.998075   1.000000
   53      -22.997970   1.000000
   54      -22.997970   1.000000
   55      -22.995157   1.000000
   56      -22.994338   1.000000
   57      -22.990290   1.000000
   58      -22.990287   1.000000
   59      -22.989466   1.000000
   60      -22.989465   1.000000
   61      -12.810522   1.000000
   62      -12.791292   1.000000
   63      -12.772879   1.000000
   64      -12.760644   1.000000
   65      -12.731793   1.000000
   66      -12.727567   1.000000
   67      -12.376907   1.000000
   68      -12.342953   1.000000
   69      -12.310189   1.000000
   70      -12.281734   1.000000
   71      -12.248081   1.000000
   72      -12.243637   1.000000
   73      -10.808642   1.000000
   74      -10.762920   1.000000
   75      -10.711338   1.000000
   76      -10.659982   1.000000
   77      -10.610361   1.000000
   78      -10.597561   1.000000
   79       -9.158734   1.000000
   80       -9.085457   1.000000
   81       -8.995395   1.000000
   82       -8.897238   1.000000
   83       -8.806788   1.000000
   84       -8.762106   1.000000
   85       -8.040314   1.000000
   86       -7.967204   1.000000
   87       -7.891787   1.000000
   88       -7.823636   1.000000
   89       -7.767409   1.000000
   90       -7.748378   1.000000
   91       -2.277271   1.000000
   92       -2.221874   1.000000
   93       -2.149876   1.000000
   94       -2.059293   1.000000
   95       -1.956947   1.000000
   96       -1.801421   1.000000
   97       -1.717824   1.000000
   98       -1.604039   1.000000
   99       -1.532002   1.000000
  100       -1.532000   1.000000
  101       -1.515925   1.000000
  102       -1.515923   1.000000
  103       -1.499918   1.000000
  104       -1.499912   1.000000
  105       -1.495839   1.000000
  106       -1.490386   1.000000
  107       -1.490384   1.000000
  108       -1.457136   1.000000
  109       -1.457129   1.000000
  110       -1.452579   1.000000
  111       -1.452567   1.000000
  112       -1.404633   1.000000
  113       -1.350006   1.000000
  114       -1.341579   1.000000
  115       -1.341576   1.000000
  116       -1.308512   1.000000
  117       -1.308504   1.000000
  118       -1.277138   1.000000
  119       -1.277132   1.000000
  120       -1.251172   1.000000
  121       -1.251164   1.000000
  122       -1.215501   1.000000
  123       -1.215493   1.000000
  124       -1.212144   1.000000
  125       -1.212133   1.000000
  126       -0.931459   1.000000
  127       -0.931088   1.000000
  128       -0.782082   1.000005
  129       -0.782081   1.000005
  130       -0.748298   1.000016
  131       -0.748298   1.000016
  132       -0.714818   1.000043
  133       -0.714818   1.000043
  134       -0.687636   1.000094
  135       -0.687635   1.000094
  136       -0.652604   1.000241
  137       -0.652604   1.000241
  138       -0.649268   1.000263
  139       -0.649267   1.000263
  140       -0.280803   1.021134
  141       -0.225224   0.955380
  142       -0.159341   0.782470
  143       -0.091790   0.517072
  144       -0.047712   0.334277
  145        0.465791  -0.000323
  146        0.513787  -0.000089
  147        0.570505  -0.000017
  148        0.635727  -0.000002
  149        0.697651  -0.000000
  150        0.729425  -0.000000
  151        1.036159  -0.000000
  152        1.036160  -0.000000
  153        1.081951  -0.000000
  154        1.081960  -0.000000
  155        1.134719  -0.000000
  156        1.134720  -0.000000
  157        1.191095  -0.000000
  158        1.191102  -0.000000
  159        1.245889  -0.000000
  160        1.245890  -0.000000
  161        1.265040  -0.000000
  162        1.265041  -0.000000
  163        1.868961  -0.000000
  164        1.899805  -0.000000
  165        1.928687  -0.000000
  166        1.956785  -0.000000
  167        1.980617  -0.000000
  168        1.980617  -0.000000
  169        1.987328  -0.000000
  170        1.995755  -0.000000
  171        2.036116  -0.000000
  172        2.036120  -0.000000
  173        2.093363  -0.000000
  174        2.093364  -0.000000
  175        2.145846  -0.000000
  176        2.145850  -0.000000
  177        2.192461  -0.000000
  178        2.192463  -0.000000
  179        2.205308  -0.000000
  180        2.205309  -0.000000
  181        4.598225  -0.000000
  182        4.615169  -0.000000
  183        5.111576  -0.000000
  184        5.138764  -0.000000
  185        5.153176  -0.000000
  186        5.168712  -0.000000
  187        5.181002  -0.000000
  188        5.185070  -0.000000
  189        5.192066  -0.000000
  190        5.245791  -0.000000
  191        5.270355  -0.000000
  192        5.299404  -0.000000
  193        5.381334   0.000000
  194        5.491706   0.000000
  195        5.622690   0.000000
  196        5.765557   0.000000
  197        5.864913   0.000000
  198        5.874113   0.000000
  199        5.908627   0.000000
  200        5.917391   0.000000
  201        5.917391   0.000000
  202        5.953537   0.000000
  203        5.956538   0.000000
  204        5.956540   0.000000
  205        6.002724   0.000000
  206        6.002724   0.000000
  207        6.016404   0.000000
  208        6.024748   0.000000
  209        6.054523   0.000000
  210        6.054524   0.000000
  211        6.109217   0.000000
  212        6.109217   0.000000
  213        6.126810   0.000000
  214        6.126810   0.000000
  215        6.155995   0.000000
  216        6.255348   0.000000
  217        6.357016   0.000000
  218        6.365022   0.000000
  219        6.515144   0.000000
  220        6.558013   0.000000
  221        6.639654   0.000000
  222        6.732380   0.000000
  223        6.799917   0.000000
  224        6.873005   0.000000
  225        6.873005   0.000000
  226        6.874539   0.000000
  227        6.983650   0.000000
  228        6.983655   0.000000
  229        6.984438   0.000000
  230        7.063603   0.000000
  231        7.118921   0.000000
  232        7.125835   0.000000
  233        7.125837   0.000000
  234        7.196703   0.000000
  235        7.290883   0.000000
  236        7.290886   0.000000
  237        7.321961   0.000000
  238        7.357421   0.000000
  239        7.400911   0.000000
  240        7.461279   0.000000
  241        7.461281   0.000000
  242        7.548971   0.000000
  243        7.548974   0.000000
  244        7.588251   0.000000
  245        7.588253   0.000000
  246        7.650237   0.000000
  247        7.650237   0.000000
  248        7.659839   0.000000
  249        7.695038   0.000000
  250        7.787766   0.000000
  251        7.787769   0.000000
  252        7.917556   0.000000
  253        7.920904   0.000000
  254        7.948750   0.000000
  255        7.948757   0.000000
  256        7.964002   0.000000
 
  0.8333333E-01  0.8560841E-17  0.0000000E+00  0.4166667E-01
    1      -23.044747   1.000000
    2      -23.043883   1.000000
    3      -23.043632   1.000000
    4      -23.043279   1.000000
    5      -23.042754   1.000000
    6      -23.042697   1.000000
    7      -23.042274   1.000000
    8      -23.041712   1.000000
    9      -23.039789   1.000000
   10      -23.038918   1.000000
   11      -23.038577   1.000000
   12      -23.038018   1.000000
   13      -23.035925   1.000000
   14      -23.035591   1.000000
   15      -23.035087   1.000000
   16      -23.034752   1.000000
   17      -23.034498   1.000000
   18      -23.034129   1.000000
   19      -23.033929   1.000000
   20      -23.033556   1.000000
   21      -23.027835   1.000000
   22      -23.027691   1.000000
   23      -23.026739   1.000000
   24      -23.026574   1.000000
   25      -23.026320   1.000000
   26      -23.025399   1.000000
   27      -23.025323   1.000000
   28      -23.024375   1.000000
   29      -23.022978   1.000000
   30      -23.022748   1.000000
   31      -23.021632   1.000000
   32      -23.020661   1.000000
   33      -23.019041   1.000000
   34      -23.018885   1.000000
   35      -23.018719   1.000000
   36      -23.018553   1.000000
   37      -23.017562   1.000000
   38      -23.017191   1.000000
   39      -23.016618   1.000000
   40      -23.016251   1.000000
   41      -23.009343   1.000000
   42      -23.008286   1.000000
   43      -23.007986   1.000000
   44      -23.006924   1.000000
   45      -23.002923   1.000000
   46      -23.001635   1.000000
   47      -22.999792   1.000000
   48      -22.999389   1.000000
   49      -22.999313   1.000000
   50      -22.998394   1.000000
   51      -22.998379   1.000000
   52      -22.998358   1.000000
   53      -22.997855   1.000000
   54      -22.997363   1.000000
   55      -22.994678   1.000000
   56      -22.993868   1.000000
   57      -22.990628   1.000000
   58      -22.990261   1.000000
   59      -22.989814   1.000000
   60      -22.989445   1.000000
   61      -12.753395   1.000000
   62      -12.734246   1.000000
   63      -12.715922   1.000000
   64      -12.703816   1.000000
   65      -12.674940   1.000000
   66      -12.670725   1.000000
   67      -12.323518   1.000000
   68      -12.289770   1.000000
   69      -12.257249   1.000000
   70      -12.229122   1.000000
   71      -12.195588   1.000000
   72      -12.191263   1.000000
   73      -10.774986   1.000000
   74      -10.729869   1.000000
   75      -10.679124   1.000000
   76      -10.628762   1.000000
   77      -10.579791   1.000000
   78      -10.567553   1.000000
   79       -9.172288   1.000000
   80       -9.101519   1.000000
   81       -9.015176   1.000000
   82       -8.921505   1.000000
   83       -8.835236   1.000000
   84       -8.793836   1.000000
   85       -8.117612   1.000000
   86       -8.049397   1.000000
   87       -7.980073   1.000000
   88       -7.918190   1.000000
   89       -7.866519   1.000000
   90       -7.850639   1.000000
   91       -2.301305   1.000000
   92       -2.282604   1.000000
   93       -2.265264   1.000000
   94       -2.247801   1.000000
   95       -2.243981   1.000000
   96       -2.239227   1.000000
   97       -2.221877   1.000000
   98       -2.200874   1.000000
   99       -2.186936   1.000000
  100       -2.167599   1.000000
  101       -2.162364   1.000000
  102       -1.728622   1.000000
  103       -1.724571   1.000000
  104       -1.722573   1.000000
  105       -1.708860   1.000000
  106       -1.689372   1.000000
  107       -1.674323   1.000000
  108       -1.641643   1.000000
  109       -1.637309   1.000000
  110       -1.616168   1.000000
  111       -1.533058   1.000000
  112       -1.444142   1.000000
  113       -1.437569   1.000000
  114       -1.398895   1.000000
  115       -1.397937   1.000000
  116       -1.369251   1.000000
  117       -1.360791   1.000000
  118       -1.357543   1.000000
  119       -1.337237   1.000000
  120       -1.326446   1.000000
  121       -1.308942   1.000000
  122       -1.288057   1.000000
  123       -1.281973   1.000000
  124       -1.253609   1.000000
  125       -1.179226   1.000000
  126       -1.035682   1.000000
  127       -0.969332   1.000000
  128       -0.824440   1.000001
  129       -0.745662   1.000017
  130       -0.709158   1.000051
  131       -0.702562   1.000061
  132       -0.672450   1.000142
  133       -0.641500   1.000321
  134       -0.605247   1.000776
  135       -0.601251   1.000852
  136       -0.600984   1.000857
  137       -0.527813   1.003971
  138       -0.456644   1.012782
  139       -0.451639   1.013696
  140       -0.350452   1.034385
  141       -0.289460   1.025990
  142       -0.216165   0.937993
  143       -0.139894   0.712529
  144       -0.090192   0.510315
  145        0.718068  -0.000000
  146        0.766925  -0.000000
  147        0.825563  -0.000000
  148        0.896202  -0.000000
  149        0.966121  -0.000000
  150        1.004669  -0.000000
  151        1.086821  -0.000000
  152        1.131891  -0.000000
  153        1.137931  -0.000000
  154        1.184671  -0.000000
  155        1.184777  -0.000000
  156        1.238795  -0.000000
  157        1.247474  -0.000000
  158        1.296789  -0.000000
  159        1.312871  -0.000000
  160        1.350277  -0.000000
  161        1.352963  -0.000000
  162        1.372932  -0.000000
  163        1.962475  -0.000000
  164        1.983451  -0.000000
  165        1.999160  -0.000000
  166        2.018104  -0.000000
  167        2.047012  -0.000000
  168        2.058755  -0.000000
  169        2.084590  -0.000000
  170        2.141292  -0.000000
  171        2.199879  -0.000000
  172        2.253591  -0.000000
  173        2.300984  -0.000000
  174        2.307259  -0.000000
  175        2.314263  -0.000000
  176        2.348839  -0.000000
  177        2.387781  -0.000000
  178        2.421127  -0.000000
  179        2.455463  -0.000000
  180        2.462116  -0.000000
  181        4.674007  -0.000000
  182        4.690757  -0.000000
  183        5.107909  -0.000000
  184        5.132939  -0.000000
  185        5.161629  -0.000000
  186        5.181561  -0.000000
  187        5.188468  -0.000000
  188        5.208946  -0.000000
  189        5.239048  -0.000000
  190        5.246660  -0.000000
  191        5.272497  -0.000000
  192        5.343495  -0.000000
  193        5.437002   0.000000
  194        5.465991   0.000000
  195        5.487068   0.000000
  196        5.502574   0.000000
  197        5.520618   0.000000
  198        5.538023   0.000000
  199        5.594537   0.000000
  200        5.626298   0.000000
  201        5.714686   0.000000
  202        5.856888   0.000000
  203        6.019853   0.000000
  204        6.020104   0.000000
  205        6.041864   0.000000
  206        6.058615   0.000000
  207        6.076701   0.000000
  208        6.104615   0.000000
  209        6.132679   0.000000
  210        6.157867   0.000000
  211        6.200024   0.000000
  212        6.215547   0.000000
  213        6.230535   0.000000
  214        6.236155   0.000000
  215        6.353381   0.000000
  216        6.388379   0.000000
  217        6.473559   0.000000
  218        6.568405   0.000000
  219        6.593994   0.000000
  220        6.638055   0.000000
  221        6.676262   0.000000
  222        6.710259   0.000000
  223        6.740743   0.000000
  224        6.775538   0.000000
  225        6.821817   0.000000
  226        6.853697   0.000000
  227        6.908597   0.000000
  228        6.970277   0.000000
  229        6.975435   0.000000
  230        7.084119   0.000000
  231        7.089766   0.000000
  232        7.115789   0.000000
  233        7.117957   0.000000
  234        7.212675   0.000000
  235        7.242204   0.000000
  236        7.288010   0.000000
  237        7.298445   0.000000
  238        7.436562   0.000000
  239        7.442450   0.000000
  240        7.463645   0.000000
  241        7.527908   0.000000
  242        7.594350   0.000000
  243        7.645781   0.000000
  244        7.666516   0.000000
  245        7.705443   0.000000
  246        7.746000   0.000000
  247        7.812097   0.000000
  248        7.834915   0.000000
  249        7.895876   0.000000
  250        7.948358   0.000000
  251        7.953678   0.000000
  252        8.054401   0.000000
  253        8.079547   0.000000
  254        8.104362   0.000000
  255        8.139421   0.000000
  256        8.157338   0.000000
 
  0.1666667E+00  0.1182557E-16  0.0000000E+00  0.4166667E-01
    1      -23.045972   1.000000
    2      -23.045123   1.000000
    3      -23.044386   1.000000
    4      -23.043789   1.000000
    5      -23.041753   1.000000
    6      -23.040869   1.000000
    7      -23.040442   1.000000
    8      -23.039883   1.000000
    9      -23.038703   1.000000
   10      -23.037860   1.000000
   11      -23.037534   1.000000
   12      -23.036903   1.000000
   13      -23.036540   1.000000
   14      -23.035765   1.000000
   15      -23.035547   1.000000
   16      -23.035196   1.000000
   17      -23.034724   1.000000
   18      -23.034608   1.000000
   19      -23.033909   1.000000
   20      -23.033314   1.000000
   21      -23.029049   1.000000
   22      -23.028916   1.000000
   23      -23.027420   1.000000
   24      -23.026526   1.000000
   25      -23.024884   1.000000
   26      -23.024687   1.000000
   27      -23.023490   1.000000
   28      -23.022528   1.000000
   29      -23.021847   1.000000
   30      -23.021666   1.000000
   31      -23.020565   1.000000
   32      -23.020151   1.000000
   33      -23.019533   1.000000
   34      -23.019124   1.000000
   35      -23.018625   1.000000
   36      -23.018521   1.000000
   37      -23.018252   1.000000
   38      -23.017349   1.000000
   39      -23.016964   1.000000
   40      -23.016066   1.000000
   41      -23.010412   1.000000
   42      -23.009070   1.000000
   43      -23.006301   1.000000
   44      -23.004949   1.000000
   45      -23.001864   1.000000
   46      -23.000761   1.000000
   47      -23.000600   1.000000
   48      -23.000216   1.000000
   49      -22.999544   1.000000
   50      -22.999382   1.000000
   51      -22.999246   1.000000
   52      -22.998088   1.000000
   53      -22.996310   1.000000
   54      -22.995522   1.000000
   55      -22.993442   1.000000
   56      -22.992635   1.000000
   57      -22.991389   1.000000
   58      -22.990597   1.000000
   59      -22.990093   1.000000
   60      -22.989302   1.000000
   61      -12.583858   1.000000
   62      -12.564968   1.000000
   63      -12.546889   1.000000
   64      -12.535238   1.000000
   65      -12.506281   1.000000
   66      -12.502100   1.000000
   67      -12.166272   1.000000
   68      -12.133198   1.000000
   69      -12.101506   1.000000
   70      -12.074466   1.000000
   71      -12.041311   1.000000
   72      -12.037391   1.000000
   73      -10.681343   1.000000
   74      -10.638217   1.000000
   75      -10.590186   1.000000
   76      -10.543046   1.000000
   77      -10.496070   1.000000
   78      -10.485596   1.000000
   79       -9.226346   1.000000
   80       -9.163011   1.000000
   81       -9.087576   1.000000
   82       -9.006955   1.000000
   83       -8.932477   1.000000
   84       -8.900324   1.000000
   85       -8.347245   1.000000
   86       -8.291165   1.000000
   87       -8.236564   1.000000
   88       -8.189804   1.000000
   89       -8.148033   1.000000
   90       -8.139127   1.000000
   91       -3.079380   1.000000
   92       -3.047686   1.000000
   93       -3.011653   1.000000
   94       -2.969333   1.000000
   95       -2.916324   1.000000
   96       -2.897083   1.000000
   97       -2.672253   1.000000
   98       -2.581873   1.000000
   99       -2.474220   1.000000
  100       -2.349328   1.000000
  101       -2.219159   1.000000
  102       -2.190418   1.000000
  103       -2.159581   1.000000
  104       -2.131288   1.000000
  105       -2.105819   1.000000
  106       -2.091088   1.000000
  107       -2.071889   1.000000
  108       -2.068620   1.000000
  109       -2.066982   1.000000
  110       -2.046115   1.000000
  111       -2.026431   1.000000
  112       -1.993523   1.000000
  113       -1.989006   1.000000
  114       -1.933720   1.000000
  115       -1.882056   1.000000
  116       -1.687907   1.000000
  117       -1.677212   1.000000
  118       -1.642501   1.000000
  119       -1.595632   1.000000
  120       -1.550563   1.000000
  121       -1.506249   1.000000
  122       -1.494985   1.000000
  123       -1.494868   1.000000
  124       -1.323724   1.000000
  125       -1.169597   1.000000
  126       -1.001955   1.000000
  127       -0.929140   1.000000
  128       -0.840280   1.000001
  129       -0.781096   1.000005
  130       -0.758570   1.000011
  131       -0.748025   1.000016
  132       -0.703558   1.000060
  133       -0.672231   1.000143
  134       -0.656825   1.000216
  135       -0.623535   1.000502
  136       -0.614306   1.000627
  137       -0.572730   1.001609
  138       -0.564589   1.001913
  139       -0.455946   1.012907
  140       -0.384578   1.028354
  141       -0.343098   1.035070
  142       -0.307030   1.032455
  143       -0.222326   0.950040
  144       -0.162730   0.793887
  145        0.858062  -0.000000
  146        0.926058  -0.000000
  147        1.007204  -0.000000
  148        1.100165  -0.000000
  149        1.195888  -0.000000
  150        1.273592  -0.000000
  151        1.353229  -0.000000
  152        1.405081  -0.000000
  153        1.418118  -0.000000
  154        1.466337  -0.000000
  155        1.510885  -0.000000
  156        1.532568  -0.000000
  157        1.595533  -0.000000
  158        1.620187  -0.000000
  159        1.623273  -0.000000
  160        1.745694  -0.000000
  161        1.860156  -0.000000
  162        1.933025  -0.000000
  163        2.180934  -0.000000
  164        2.216013  -0.000000
  165        2.249510  -0.000000
  166        2.289044  -0.000000
  167        2.336680  -0.000000
  168        2.349095  -0.000000
  169        2.362223  -0.000000
  170        2.410271  -0.000000
  171        2.473937  -0.000000
  172        2.532405  -0.000000
  173        2.582859  -0.000000
  174        2.598090  -0.000000
  175        2.826228  -0.000000
  176        2.878190  -0.000000
  177        2.934408  -0.000000
  178        2.992312  -0.000000
  179        3.044950  -0.000000
  180        3.067187  -0.000000
  181        4.620906  -0.000000
  182        4.651431  -0.000000
  183        4.676730  -0.000000
  184        4.710946  -0.000000
  185        4.758681  -0.000000
  186        4.798044  -0.000000
  187        5.007062  -0.000000
  188        5.020911  -0.000000
  189        5.343476  -0.000000
  190        5.380143   0.000000
  191        5.393856   0.000000
  192        5.419679   0.000000
  193        5.434658   0.000000
  194        5.476832   0.000000
  195        5.501258   0.000000
  196        5.554350   0.000000
  197        5.580924   0.000000
  198        5.616777   0.000000
  199        5.658976   0.000000
  200        5.770940   0.000000
  201        5.900129   0.000000
  202        5.920606   0.000000
  203        5.990927   0.000000
  204        6.039339   0.000000
  205        6.112648   0.000000
  206        6.192050   0.000000
  207        6.272102   0.000000
  208        6.305502   0.000000
  209        6.320564   0.000000
  210        6.348196   0.000000
  211        6.372558   0.000000
  212        6.400272   0.000000
  213        6.441847   0.000000
  214        6.462370   0.000000
  215        6.476468   0.000000
  216        6.529366   0.000000
  217        6.558521   0.000000
  218        6.574342   0.000000
  219        6.608952   0.000000
  220        6.669166   0.000000
  221        6.740935   0.000000
  222        6.815673   0.000000
  223        6.856557   0.000000
  224        6.866435   0.000000
  225        6.973615   0.000000
  226        7.029896   0.000000
  227        7.061339   0.000000
  228        7.117428   0.000000
  229        7.164093   0.000000
  230        7.176859   0.000000
  231        7.219524   0.000000
  232        7.305592   0.000000
  233        7.314365   0.000000
  234        7.365259   0.000000
  235        7.384904   0.000000
  236        7.460659   0.000000
  237        7.488184   0.000000
  238        7.564164   0.000000
  239        7.595645   0.000000
  240        7.680086   0.000000
  241        7.703578   0.000000
  242        7.706075   0.000000
  243        7.801006   0.000000
  244        7.859241   0.000000
  245        7.893364   0.000000
  246        7.947181   0.000000
  247        7.963335   0.000000
  248        8.022879   0.000000
  249        8.023564   0.000000
  250        8.154032   0.000000
  251        8.185634   0.000000
  252        8.227575   0.000000
  253        8.312201   0.000000
  254        8.343886   0.000000
  255        8.429752   0.000000
  256        8.510479   0.000000
 
  0.2500000E+00  0.2273288E-16  0.0000000E+00  0.4166667E-01
    1      -23.047944   1.000000
    2      -23.047113   1.000000
    3      -23.046144   1.000000
    4      -23.045534   1.000000
    5      -23.040028   1.000000
    6      -23.039178   1.000000
    7      -23.039057   1.000000
    8      -23.038588   1.000000
    9      -23.038267   1.000000
   10      -23.038006   1.000000
   11      -23.037023   1.000000
   12      -23.036386   1.000000
   13      -23.036029   1.000000
   14      -23.035217   1.000000
   15      -23.034673   1.000000
   16      -23.034420   1.000000
   17      -23.033830   1.000000
   18      -23.033819   1.000000
   19      -23.033186   1.000000
   20      -23.032606   1.000000
   21      -23.030999   1.000000
   22      -23.030885   1.000000
   23      -23.029172   1.000000
   24      -23.028322   1.000000
   25      -23.023163   1.000000
   26      -23.022961   1.000000
   27      -23.022083   1.000000
   28      -23.022033   1.000000
   29      -23.021629   1.000000
   30      -23.020709   1.000000
   31      -23.020062   1.000000
   32      -23.019440   1.000000
   33      -23.019012   1.000000
   34      -23.018913   1.000000
   35      -23.017730   1.000000
   36      -23.017654   1.000000
   37      -23.017470   1.000000
   38      -23.016582   1.000000
   39      -23.016246   1.000000
   40      -23.015329   1.000000
   41      -23.012168   1.000000
   42      -23.010849   1.000000
   43      -23.004183   1.000000
   44      -23.002862   1.000000
   45      -23.002620   1.000000
   46      -23.002400   1.000000
   47      -23.001333   1.000000
   48      -23.001069   1.000000
   49      -22.999361   1.000000
   50      -22.998944   1.000000
   51      -22.998082   1.000000
   52      -22.997627   1.000000
   53      -22.994506   1.000000
   54      -22.993690   1.000000
   55      -22.993334   1.000000
   56      -22.992547   1.000000
   57      -22.990693   1.000000
   58      -22.989913   1.000000
   59      -22.989273   1.000000
   60      -22.988522   1.000000
   61      -12.308140   1.000000
   62      -12.289805   1.000000
   63      -12.272243   1.000000
   64      -12.261504   1.000000
   65      -12.232376   1.000000
   66      -12.228252   1.000000
   67      -11.915322   1.000000
   68      -11.883679   1.000000
   69      -11.853684   1.000000
   70      -11.828920   1.000000
   71      -11.796463   1.000000
   72      -11.793293   1.000000
   73      -10.552798   1.000000
   74      -10.513587   1.000000
   75      -10.470856   1.000000
   76      -10.430069   1.000000
   77      -10.386479   1.000000
   78      -10.379132   1.000000
   79       -9.356688   1.000000
   80       -9.304801   1.000000
   81       -9.245682   1.000000
   82       -9.184305   1.000000
   83       -9.125786   1.000000
   84       -9.106249   1.000000
   85       -8.705929   1.000000
   86       -8.663068   1.000000
   87       -8.623627   1.000000
   88       -8.592753   1.000000
   89       -8.558336   1.000000
   90       -8.555067   1.000000
   91       -3.768592   1.000000
   92       -3.728927   1.000000
   93       -3.681159   1.000000
   94       -3.623797   1.000000
   95       -3.560329   1.000000
   96       -3.532259   1.000000
   97       -3.066502   1.000000
   98       -2.960058   1.000000
   99       -2.846429   1.000000
  100       -2.774654   1.000000
  101       -2.750953   1.000000
  102       -2.740783   1.000000
  103       -2.694480   1.000000
  104       -2.625083   1.000000
  105       -2.542753   1.000000
  106       -2.444164   1.000000
  107       -2.443267   1.000000
  108       -2.420410   1.000000
  109       -2.396406   1.000000
  110       -2.374534   1.000000
  111       -2.341344   1.000000
  112       -2.336526   1.000000
  113       -2.316848   1.000000
  114       -2.206965   1.000000
  115       -1.971642   1.000000
  116       -1.922619   1.000000
  117       -1.909677   1.000000
  118       -1.870829   1.000000
  119       -1.850674   1.000000
  120       -1.819822   1.000000
  121       -1.771416   1.000000
  122       -1.760864   1.000000
  123       -1.756572   1.000000
  124       -1.644343   1.000000
  125       -1.514091   1.000000
  126       -1.333523   1.000000
  127       -1.297711   1.000000