       N       E                     dE             d eps       ncg     rms          rms(c)
DAV:   1     0.171844586588E+04    0.17184E+04   -0.10050E+05  9728   0.619E+02
DAV:   2     0.289345472400E+01   -0.17156E+04   -0.16854E+04 12544   0.199E+02
DAV:   3    -0.110544926570E+03   -0.11344E+03   -0.11325E+03 11648   0.641E+01
DAV:   4    -0.114156078542E+03   -0.36112E+01   -0.36110E+01 16896   0.120E+01
DAV:   5    -0.114192087290E+03   -0.36009E-01   -0.36009E-01 13568   0.887E-01    0.678E+00
RMM:   6    -0.112274167519E+03    0.19179E+01   -0.33852E+00  9850   0.224E+00    0.293E+00
RMM:   7    -0.112181144953E+03    0.93023E-01   -0.30537E-01 10512   0.101E+00    0.146E+00
RMM:   8    -0.112351098748E+03   -0.16995E+00   -0.85131E-02 10194   0.542E-01    0.109E+00
RMM:   9    -0.112238893981E+03    0.11220E+00   -0.48135E-02 10371   0.309E-01    0.615E-01
RMM:  10    -0.112182649617E+03    0.56244E-01   -0.85869E-03 10637   0.175E-01    0.150E-01
RMM:  11    -0.112180762966E+03    0.18867E-02   -0.14395E-03 10259   0.608E-02    0.111E-01
RMM:  12    -0.112182463738E+03   -0.17008E-02   -0.93816E-04 10063   0.489E-02    0.117E-01
RMM:  13    -0.112182215297E+03    0.24844E-03   -0.41330E-04 10386   0.308E-02    0.798E-02
RMM:  14    -0.112180505751E+03    0.17095E-02   -0.13077E-04 10566   0.182E-02    0.445E-02
RMM:  15    -0.112180152734E+03    0.35302E-03   -0.59173E-05 10219   0.122E-02    0.156E-02
RMM:  16    -0.112180136244E+03    0.16490E-04   -0.10594E-05  9598   0.575E-03    0.986E-03
RMM:  17    -0.112180142987E+03   -0.67426E-05   -0.73484E-06  8803   0.400E-03    0.681E-03
RMM:  18    -0.112180147979E+03   -0.49925E-05   -0.29129E-06  8491   0.271E-03    0.296E-03
RMM:  19    -0.112180156402E+03   -0.84226E-05   -0.86521E-07  7714   0.172E-03    0.279E-03
RMM:  20    -0.112180167427E+03   -0.11025E-04   -0.79553E-07  7264   0.140E-03    0.143E-03
RMM:  21    -0.112180176637E+03   -0.92102E-05   -0.33732E-07  6367   0.887E-04    0.115E-03
RMM:  22    -0.112180139856E+03    0.36782E-04    0.33896E-05  5774   0.779E-04    0.106E-03
RMM:  23    -0.112179553143E+03    0.58671E-03    0.28424E-03  5392   0.384E-04    0.425E-03
RMM:  24    -0.112179001833E+03    0.55131E-03    0.24036E-02  5381  -0.175E-03    0.541E-03
RMM:  25    -0.112176481676E+03    0.25202E-02    0.31407E-02  5287  -0.172E-03    0.144E-02
RMM:  26    -0.112199442873E+03   -0.22961E-01   -0.30428E-02  5612   0.160E-03    0.997E-02
RMM:  27    -0.112269675867E+03   -0.70233E-01   -0.63968E-01  7395   0.550E-02    0.241E-01
RMM:  28    -0.112429491485E+03   -0.15982E+00   -0.24380E+00  8708   0.194E-01    0.476E-01
RMM:  29    -0.112678260525E+03   -0.24877E+00   -0.35721E+00  9488   0.323E-01    0.697E-01
RMM:  30    -0.112541840630E+03    0.13642E+00   -0.11087E+01  9654   0.862E-01    0.494E-01
RMM:  31    -0.112474575572E+03    0.67265E-01   -0.10582E+01  9797   0.690E-01    0.428E-01
RMM:  32    -0.112467528417E+03    0.70472E-02   -0.67255E+00  9703   0.513E-01    0.378E-01
RMM:  33    -0.112466749611E+03    0.77881E-03   -0.70266E+00  9520   0.453E-01    0.440E-01
RMM:  34    -0.112510493820E+03   -0.43744E-01   -0.69962E+00  9300   0.493E-01    0.317E-01
RMM:  35    -0.112647421602E+03   -0.13693E+00   -0.37458E+00  8737   0.259E-01    0.283E-01
RMM:  36    -0.112585041920E+03    0.62380E-01   -0.31439E+00  8526   0.261E-01    0.325E-01
RMM:  37    -0.112472838256E+03    0.11220E+00   -0.39709E+00  8635   0.302E-01    0.405E-01
RMM:  38    -0.112570281175E+03   -0.97443E-01   -0.63031E+00  8746   0.472E-01    0.418E-01
RMM:  39    -0.112363835837E+03    0.20645E+00   -0.12230E+01  9050   0.692E-01    0.266E-01
RMM:  40    -0.112356407190E+03    0.74286E-02   -0.58314E+00  8907   0.379E-01    0.268E-01
RMM:  41    -0.112410320325E+03   -0.53913E-01   -0.46528E+00  8620   0.298E-01    0.298E-01
RMM:  42    -0.112496001619E+03   -0.85681E-01   -0.51531E+00  8795   0.354E-01    0.428E-01
RMM:  43    -0.112547067205E+03   -0.51066E-01   -0.51721E+00  9111   0.421E-01    0.475E-01
RMM:  44    -0.112540549452E+03    0.65178E-02   -0.74683E+00  9062   0.561E-01    0.366E-01
RMM:  45    -0.112456067083E+03    0.84482E-01   -0.82447E+00  8658   0.518E-01    0.419E-01
RMM:  46    -0.112588524415E+03   -0.13246E+00   -0.75113E+00  8605   0.517E-01    0.509E-01
RMM:  47    -0.112450547191E+03    0.13798E+00   -0.11328E+01  8491   0.726E-01    0.387E-01
RMM:  48    -0.112362039682E+03    0.88508E-01   -0.60237E+00  8655   0.450E-01    0.283E-01
RMM:  49    -0.112525472104E+03   -0.16343E+00   -0.56505E+00  8586   0.365E-01    0.350E-01
RMM:  50    -0.112395601265E+03    0.12987E+00   -0.68880E+00  7687   0.459E-01    0.321E-01
RMM:  51    -0.112350242233E+03    0.45359E-01   -0.78756E+00  8360   0.472E-01    0.323E-01
RMM:  52    -0.112404603420E+03   -0.54361E-01   -0.59563E+00  8662   0.419E-01    0.289E-01
RMM:  53    -0.112279397116E+03    0.12521E+00   -0.66483E+00  8317   0.410E-01    0.205E-01
RMM:  54    -0.112281613921E+03   -0.22168E-02   -0.48371E+00  8287   0.288E-01    0.231E-01
RMM:  55    -0.112309762064E+03   -0.28148E-01   -0.44057E+00  8520   0.292E-01    0.251E-01
RMM:  56    -0.112288352377E+03    0.21410E-01   -0.46035E+00  8417   0.307E-01    0.278E-01
RMM:  57    -0.112380696503E+03   -0.92344E-01   -0.65026E+00  7989   0.391E-01    0.335E-01
RMM:  58    -0.112350275638E+03    0.30421E-01   -0.69269E+00  8431   0.459E-01    0.252E-01
RMM:  59    -0.112308863402E+03    0.41412E-01   -0.54446E+00  8335   0.346E-01    0.321E-01
RMM:  60    -0.112361095492E+03   -0.52232E-01   -0.82314E+00  7961   0.496E-01    0.384E-01
RMM:  61    -0.112412005387E+03   -0.50910E-01   -0.56364E+00  8756   0.432E-01    0.479E-01
RMM:  62    -0.112458716913E+03   -0.46712E-01   -0.99436E+00  8444   0.673E-01    0.392E-01
RMM:  63    -0.112543296620E+03   -0.84580E-01   -0.81272E+00  8455   0.532E-01    0.537E-01
RMM:  64    -0.112360014432E+03    0.18328E+00   -0.12566E+01  8517   0.808E-01    0.312E-01
RMM:  65    -0.112369582863E+03   -0.95684E-02   -0.60776E+00  8754   0.401E-01    0.347E-01
RMM:  66    -0.112492923694E+03   -0.12334E+00   -0.73475E+00  9027   0.476E-01    0.430E-01
RMM:  67    -0.112516191192E+03   -0.23267E-01   -0.81595E+00  8793   0.566E-01    0.377E-01
RMM:  68    -0.112350227375E+03    0.16596E+00   -0.83044E+00  8851   0.545E-01    0.265E-01
RMM:  69    -0.112388214850E+03   -0.37987E-01   -0.53193E+00  8224   0.343E-01    0.335E-01
RMM:  70    -0.112459991650E+03   -0.71777E-01   -0.77834E+00  8788   0.491E-01    0.433E-01
RMM:  71    -0.112433125601E+03    0.26866E-01   -0.10022E+01 10721   0.683E-01    0.439E-01
RMM:  72    -0.112502861840E+03   -0.69736E-01   -0.10063E+01 10559   0.651E-01    0.388E-01
RMM:  73    -0.112335064021E+03    0.16780E+00   -0.82640E+00 10674   0.556E-01    0.217E-01
RMM:  74    -0.112334317703E+03    0.74632E-03   -0.51043E+00 10561   0.313E-01    0.300E-01
RMM:  75    -0.112304269223E+03    0.30048E-01   -0.66116E+00 10152   0.429E-01    0.269E-01
RMM:  76    -0.112445600038E+03   -0.14133E+00   -0.49723E+00 10176   0.350E-01    0.323E-01
RMM:  77    -0.112562405759E+03   -0.11681E+00   -0.74839E+00  9594   0.473E-01    0.510E-01
RMM:  78    -0.112468272168E+03    0.94134E-01   -0.12359E+01  8715   0.788E-01    0.317E-01
RMM:  79    -0.112402832969E+03    0.65439E-01   -0.68849E+00  9171   0.430E-01    0.308E-01
RMM:  80    -0.112394341703E+03    0.84913E-02   -0.57441E+00  9131   0.402E-01
   1 F= -.11239434E+03 E0= -.11241039E+03  d E =-.112394E+03
       N       E                     dE             d eps       ncg     rms          rms(c)
DAV:   1    -0.112180257025E+03    0.22258E+00   -0.66935E+00  9728   0.131E+00    0.731E-02
RMM:   2    -0.112181093660E+03   -0.83663E-03   -0.92576E-03  9941   0.162E-01    0.541E-02
RMM:   3    -0.112181422076E+03   -0.32842E-03   -0.94419E-04 11490   0.598E-02    0.493E-02
RMM:   4    -0.112182174717E+03   -0.75264E-03   -0.13034E-04  9896   0.145E-02    0.633E-02
RMM:   5    -0.112181005389E+03    0.11693E-02   -0.59662E-05 10313   0.103E-02    0.293E-02
RMM:   6    -0.112180911818E+03    0.93571E-04   -0.28087E-05  9846   0.675E-03    0.198E-02
RMM:   7    -0.112180870915E+03    0.40902E-04   -0.88433E-06  9467   0.439E-03    0.784E-03
RMM:   8    -0.112180861820E+03    0.90958E-05   -0.18732E-06  7828   0.219E-03    0.466E-03
RMM:   9    -0.112180860073E+03    0.17462E-05   -0.60246E-07  7022   0.146E-03    0.219E-03
RMM:  10    -0.112180860073E+03    0.44747E-09   -0.31249E-07  6994   0.110E-03
   2 F= -.11218086E+03 E0= -.11219471E+03  d E =0.213482E+00
       N       E                     dE             d eps       ncg     rms          rms(c)
DAV:   1    -0.112180886492E+03   -0.26418E-04   -0.10416E-02 14336   0.119E-01    0.586E-03
RMM:   2    -0.112180908372E+03   -0.21880E-04   -0.23602E-04  9758   0.258E-02    0.413E-03
RMM:   3    -0.112180908884E+03   -0.51204E-06   -0.21512E-05 10104   0.887E-03    0.319E-03
RMM:   4    -0.112180910123E+03   -0.12393E-05   -0.65456E-07  7000   0.176E-03    0.325E-03
RMM:   5    -0.112180908196E+03    0.19270E-05   -0.33320E-07  6979   0.111E-03    0.223E-03
RMM:   6    -0.112180908405E+03   -0.20923E-06   -0.30940E-07  6993   0.108E-03
   3 F= -.11218091E+03 E0= -.11219473E+03  d E =0.213433E+00
       N       E                     dE             d eps       ncg     rms          rms(c)
DAV:   1    -0.112180870644E+03    0.37552E-04   -0.41633E-02 14592   0.238E-01    0.120E-02
RMM:   2    -0.112180961486E+03   -0.90843E-04   -0.93027E-04  9888   0.516E-02    0.957E-03
RMM:   3    -0.112180977831E+03   -0.16345E-04   -0.88043E-05 11383   0.177E-02    0.984E-03
RMM:   4    -0.112180968132E+03    0.96993E-05   -0.31029E-06  8269   0.300E-03    0.783E-03
RMM:   5    -0.112180955715E+03    0.12418E-04   -0.84068E-07  7133   0.168E-03    0.438E-03
RMM:   6    -0.112180956071E+03   -0.35642E-06   -0.51321E-07  6996   0.133E-03
   4 F= -.11218096E+03 E0= -.11219472E+03  d E =0.213386E+00
       N       E                     dE             d eps       ncg     rms          rms(c)
DAV:   1    -0.112181112927E+03   -0.15721E-03   -0.20419E-01 13568   0.554E-01    0.276E-02
RMM:   2    -0.112181586315E+03   -0.47339E-03   -0.43272E-03  9935   0.115E-01    0.271E-02
RMM:   3    -0.112181560824E+03    0.25491E-04   -0.41771E-04 11680   0.397E-02    0.197E-02
RMM:   4    -0.112181519033E+03    0.41790E-04   -0.13611E-05  9905   0.643E-03    0.124E-02
RMM:   5    -0.112181518204E+03    0.82916E-06   -0.30979E-06  8572   0.297E-03
   5 F= -.11218152E+03 E0= -.11219511E+03  d E =-.562133E-03
       N       E                     dE             d eps       ncg     rms          rms(c)
DAV:   1    -0.112181511038E+03    0.79954E-05   -0.42771E-02 14592   0.265E-01    0.140E-02
RMM:   2    -0.112181733485E+03   -0.22245E-03   -0.11140E-03  9788   0.575E-02    0.226E-02
RMM:   3    -0.112181645449E+03    0.88036E-04   -0.10082E-04 11770   0.210E-02    0.148E-02
RMM:   4    -0.112181616309E+03    0.29139E-04   -0.47767E-06  8577   0.359E-03    0.954E-03
RMM:   5    -0.112181607873E+03    0.84365E-05   -0.15523E-06  7828   0.221E-03    0.680E-03
RMM:   6    -0.112181609309E+03   -0.14367E-05   -0.25628E-06  8168   0.271E-03    0.261E-03
RMM:   7    -0.112181609183E+03    0.12612E-06   -0.67081E-07  6994   0.175E-03
   6 F= -.11218161E+03 E0= -.11219518E+03  d E =-.653112E-03
       N       E                     dE             d eps       ncg     rms          rms(c)
DAV:   1    -0.112181232197E+03    0.37711E-03   -0.16991E-01 14080   0.503E-01    0.247E-02
RMM:   2    -0.112181611495E+03   -0.37930E-03   -0.35826E-03  9934   0.103E-01    0.230E-02
RMM:   3    -0.112181601647E+03    0.98480E-05   -0.34421E-04 11668   0.360E-02    0.174E-02
RMM:   4    -0.112181562615E+03    0.39032E-04   -0.10700E-05  9812   0.574E-03    0.995E-03
RMM:   5    -0.112181571455E+03   -0.88403E-05   -0.21516E-06  8125   0.265E-03    0.101E-02
RMM:   6    -0.112181562022E+03    0.94333E-05   -0.18341E-06  7520   0.206E-03    0.769E-03
RMM:   7    -0.112181558779E+03    0.32429E-05   -0.27057E-06  8037   0.266E-03    0.246E-03
RMM:   8    -0.112181558768E+03    0.11434E-07   -0.76103E-07  7000   0.187E-03
   7 F= -.11218156E+03 E0= -.11219500E+03  d E =-.602697E-03
       N       E                     dE             d eps       ncg     rms          rms(c)
DAV:   1    -0.112181497781E+03    0.60998E-04   -0.72633E-02 14592   0.327E-01    0.159E-02
RMM:   2    -0.112181664758E+03   -0.16698E-03   -0.15273E-03  9930   0.695E-02    0.157E-02
RMM:   3    -0.112181654490E+03    0.10268E-04   -0.14699E-04 11552   0.234E-02    0.115E-02
RMM:   4    -0.112181634456E+03    0.20033E-04   -0.42035E-06  8862   0.381E-03    0.592E-03
RMM:   5    -0.112181633860E+03    0.59615E-06   -0.80146E-07  7036   0.183E-03
   8 F= -.11218163E+03 E0= -.11219517E+03  d E =-.677789E-03
       N       E                     dE             d eps       ncg     rms          rms(c)
DAV:   1    -0.112181709231E+03   -0.74775E-04   -0.23361E-02 14592   0.156E-01    0.105E-02
RMM:   2    -0.112181766993E+03   -0.57762E-04   -0.53214E-04  9872   0.332E-02    0.971E-03
RMM:   3    -0.112181808190E+03   -0.41197E-04   -0.49965E-05 10904   0.120E-02    0.133E-02
RMM:   4    -0.112181754708E+03    0.53482E-04   -0.30061E-06  8132   0.275E-03    0.446E-03
RMM:   5    -0.112181752853E+03    0.18551E-05   -0.51376E-07  7028   0.155E-03    0.300E-03
RMM:   6    -0.112181753991E+03   -0.11383E-05   -0.47904E-07  6995   0.130E-03    0.239E-03
RMM:   7    -0.112181754395E+03   -0.40441E-06   -0.49011E-07  7016   0.125E-03
   9 F= -.11218175E+03 E0= -.11219528E+03  d E =-.120535E-03
       N       E                     dE             d eps       ncg     rms          rms(c)
DAV:   1    -0.112181744483E+03    0.95076E-05   -0.29256E-02 14080   0.174E-01    0.121E-02
RMM:   2    -0.112181803394E+03   -0.58911E-04   -0.66269E-04  9878   0.371E-02    0.874E-03
RMM:   3    -0.112181825201E+03   -0.21807E-04   -0.59944E-05 11010   0.132E-02    0.994E-03
RMM:   4    -0.112181803875E+03    0.21326E-04   -0.27703E-06  7949   0.279E-03    0.578E-03
RMM:   5    -0.112181798044E+03    0.58312E-05   -0.60496E-07  7037   0.160E-03    0.327E-03
RMM:   6    -0.112181800323E+03   -0.22788E-05   -0.57072E-07  7028   0.135E-03    0.362E-03
RMM:   7    -0.112181799259E+03    0.10642E-05   -0.60188E-07  7053   0.136E-03    0.870E-04
RMM:   8    -0.112181799350E+03   -0.90826E-07   -0.32768E-07  6923   0.107E-03
  10 F= -.11218180E+03 E0= -.11219536E+03  d E =-.165489E-03
