Tetradymite Slab                        
           1
     4.450884    0.000000    0.000000
    -2.225442    3.854579    0.000000
     0.000000    0.000000  127.750642
   Bi   Te
  12  18
Direct configuration=     1
   0.33333300  0.66666700  0.02561972
   0.33333300  0.66666700  0.22438053
   0.00000000  0.00000000  0.10895297
   0.00000000  0.00000000  0.05771378
   0.66666700  0.33333300  0.19228622
   0.66666700  0.33333300  0.14104703
   0.33333300  0.66666700  0.27561972
   0.33333300  0.66666700  0.47438053
   0.00000000  0.00000000  0.35895297
   0.00000000  0.00000000  0.30771378
   0.66666700  0.33333300  0.44228622
   0.66666700  0.33333300  0.39104703
   0.66666700  0.33333300  0.23787157
   0.00000000  0.00000000  0.20833338
   0.00000000  0.00000000  0.01212843
   0.33333300  0.66666700  0.07120507
   0.66666700  0.33333300  0.04166663
   0.66666700  0.33333300  0.09546168
   0.00000000  0.00000000  0.15453832
   0.33333300  0.66666700  0.12500012
   0.33333300  0.66666700  0.17879518
   0.66666700  0.33333300  0.48787157
   0.00000000  0.00000000  0.45833338
   0.00000000  0.00000000  0.26212843
   0.33333300  0.66666700  0.32120507
   0.66666700  0.33333300  0.29166663
   0.66666700  0.33333300  0.34546168
   0.00000000  0.00000000  0.40453832
   0.33333300  0.66666700  0.37500012
   0.33333300  0.66666700  0.42879518
Direct configuration=     2
   0.33333300  0.66666700  0.02561972
   0.33333300  0.66666700  0.22438602
  -0.00000000  0.00000000  0.10893361
  -0.00000000  0.00000000  0.05772765
   0.66666700  0.33333300  0.19227287
   0.66666700  0.33333300  0.14106980
   0.33333300  0.66666700  0.27560604
   0.33333300  0.66666700  0.47441726
   0.00000000  0.00000000  0.35895297
  -0.00000000  0.00000000  0.30772614
   0.66666700  0.33333300  0.44226869
   0.66666700  0.33333300  0.39104646
   0.66666700  0.33333300  0.23789586
  -0.00000000  0.00000000  0.20832712
  -0.00000000  0.00000000  0.01214287
   0.33333300  0.66666700  0.07121979
   0.66666700  0.33333300  0.04168328
   0.66666700  0.33333300  0.09544245
  -0.00000000  0.00000000  0.15455483
   0.33333300  0.66666700  0.12500254
   0.33333300  0.66666700  0.17877385
   0.66666700  0.33333300  0.48785334
  -0.00000000  0.00000000  0.45832141
  -0.00000000  0.00000000  0.26211591
   0.33333300  0.66666700  0.32121259
   0.66666700  0.33333300  0.29167083
   0.66666700  0.33333300  0.34544367
  -0.00000000  0.00000000  0.40456057
   0.33333300  0.66666700  0.37499424
   0.33333300  0.66666700  0.42878846
Direct configuration=     3
   0.33333300  0.66666700  0.02561972
   0.33333300  0.66666700  0.22438691
  -0.00000000  0.00000000  0.10893047
  -0.00000000  0.00000000  0.05772989
   0.66666700  0.33333300  0.19227070
   0.66666700  0.33333300  0.14107350
   0.33333300  0.66666700  0.27560383
   0.33333300  0.66666700  0.47442322
   0.00000000  0.00000000  0.35895297
  -0.00000000  0.00000000  0.30772815
   0.66666700  0.33333300  0.44226584
   0.66666700  0.33333300  0.39104637
   0.66666700  0.33333300  0.23789980
  -0.00000000  0.00000000  0.20832611
  -0.00000000  0.00000000  0.01214521
   0.33333300  0.66666700  0.07122218
   0.66666700  0.33333300  0.04168598
   0.66666700  0.33333300  0.09543933
  -0.00000000  0.00000000  0.15455751
   0.33333300  0.66666700  0.12500293
   0.33333300  0.66666700  0.17877039
   0.66666700  0.33333300  0.48785039
  -0.00000000  0.00000000  0.45831947
  -0.00000000  0.00000000  0.26211388
   0.33333300  0.66666700  0.32121380
   0.66666700  0.33333300  0.29167151
   0.66666700  0.33333300  0.34544075
  -0.00000000  0.00000000  0.40456418
   0.33333300  0.66666700  0.37499329
   0.33333300  0.66666700  0.42878738
Direct configuration=     4
   0.33333300  0.66666700  0.02561972
   0.33333300  0.66666700  0.22438870
  -0.00000000  0.00000000  0.10892419
  -0.00000000  0.00000000  0.05773439
   0.66666700  0.33333300  0.19226637
   0.66666700  0.33333300  0.14108089
   0.33333300  0.66666700  0.27559939
   0.33333300  0.66666700  0.47443514
   0.00000000  0.00000000  0.35895297
  -0.00000000  0.00000000  0.30773216
   0.66666700  0.33333300  0.44226015
   0.66666700  0.33333300  0.39104618
   0.66666700  0.33333300  0.23790768
  -0.00000000  0.00000000  0.20832408
  -0.00000000  0.00000000  0.01214989
   0.33333300  0.66666700  0.07122695
   0.66666700  0.33333300  0.04169139
   0.66666700  0.33333300  0.09543309
  -0.00000000  0.00000000  0.15456286
   0.33333300  0.66666700  0.12500371
   0.33333300  0.66666700  0.17876347
   0.66666700  0.33333300  0.48784447
  -0.00000000  0.00000000  0.45831558
  -0.00000000  0.00000000  0.26210982
   0.33333300  0.66666700  0.32121624
   0.66666700  0.33333300  0.29167287
   0.66666700  0.33333300  0.34543490
  -0.00000000  0.00000000  0.40457140
   0.33333300  0.66666700  0.37499138
   0.33333300  0.66666700  0.42878520
Direct configuration=     5
   0.33333300  0.66666700  0.02561972
   0.33333300  0.66666700  0.22440299
  -0.00000000 -0.00000000  0.10891000
  -0.00000000  0.00000000  0.05774400
   0.66666700  0.33333300  0.19225115
   0.66666700  0.33333300  0.14108520
   0.33333300  0.66666700  0.27559209
   0.33333300  0.66666700  0.47445341
   0.00000000  0.00000000  0.35895297
  -0.00000000  0.00000000  0.30774280
   0.66666700  0.33333300  0.44225761
   0.66666700  0.33333300  0.39106795
   0.66666700  0.33333300  0.23790267
  -0.00000000  0.00000000  0.20832486
  -0.00000000  0.00000000  0.01217892
   0.33333300  0.66666700  0.07122779
   0.66666700  0.33333300  0.04169983
   0.66666700  0.33333300  0.09543434
  -0.00000000  0.00000000  0.15456670
   0.33333300  0.66666700  0.12500926
   0.33333300  0.66666700  0.17876552
   0.66666700  0.33333300  0.48783045
  -0.00000000  0.00000000  0.45831271
  -0.00000000  0.00000000  0.26211007
   0.33333300  0.66666700  0.32121577
   0.66666700  0.33333300  0.29167047
   0.66666700  0.33333300  0.34543977
  -0.00000000  0.00000000  0.40456198
   0.33333300  0.66666700  0.37498675
   0.33333300  0.66666700  0.42878152
Direct configuration=     6
   0.33333300  0.66666700  0.02561972
   0.33333300  0.66666700  0.22440951
   0.00000000 -0.00000000  0.10890353
  -0.00000000  0.00000000  0.05774837
   0.66666700  0.33333300  0.19224420
   0.66666700  0.33333300  0.14108717
   0.33333300  0.66666700  0.27558875
   0.33333300  0.66666700  0.47446175
   0.00000000  0.00000000  0.35895297
  -0.00000000  0.00000000  0.30774765
   0.66666700  0.33333300  0.44225645
   0.66666700  0.33333300  0.39107788
   0.66666700  0.33333300  0.23790038
  -0.00000000 -0.00000000  0.20832522
  -0.00000000 -0.00000000  0.01219215
   0.33333300  0.66666700  0.07122817
   0.66666700  0.33333300  0.04170367
   0.66666700  0.33333300  0.09543491
  -0.00000000  0.00000000  0.15456845
   0.33333300  0.66666700  0.12501180
   0.33333300  0.66666700  0.17876646
   0.66666700  0.33333300  0.48782405
  -0.00000000 -0.00000000  0.45831139
  -0.00000000 -0.00000000  0.26211018
   0.33333300  0.66666700  0.32121556
   0.66666700  0.33333300  0.29166938
   0.66666700  0.33333300  0.34544199
  -0.00000000  0.00000000  0.40455769
   0.33333300  0.66666700  0.37498463
   0.33333300  0.66666700  0.42877985
Direct configuration=     7
   0.33333300  0.66666700  0.02561972
   0.33333300  0.66666700  0.22442255
   0.00000000 -0.00000000  0.10889059
  -0.00000000 -0.00000000  0.05775713
   0.66666700  0.33333300  0.19223031
   0.66666700  0.33333300  0.14109111
   0.33333300  0.66666700  0.27558209
   0.33333300  0.66666700  0.47447842
   0.00000000  0.00000000  0.35895297
   0.00000000 -0.00000000  0.30775735
   0.66666700  0.33333300  0.44225413
   0.66666700  0.33333300  0.39109774
   0.66666700  0.33333300  0.23789581
  -0.00000000 -0.00000000  0.20832593
  -0.00000000 -0.00000000  0.01221863
   0.33333300  0.66666700  0.07122893
   0.66666700  0.33333300  0.04171137
   0.66666700  0.33333300  0.09543606
  -0.00000000 -0.00000000  0.15457194
   0.33333300  0.66666700  0.12501687
   0.33333300  0.66666700  0.17876833
   0.66666700  0.33333300  0.48781126
  -0.00000000 -0.00000000  0.45830877
  -0.00000000 -0.00000000  0.26211041
   0.33333300  0.66666700  0.32121513
   0.66666700  0.33333300  0.29166719
   0.66666700  0.33333300  0.34544643
  -0.00000000 -0.00000000  0.40454909
   0.33333300  0.66666700  0.37498040
   0.33333300  0.66666700  0.42877650
Direct configuration=     8
   0.33333300  0.66666700  0.02561972
   0.33333300  0.66666700  0.22441402
   0.00000000 -0.00000000  0.10889906
  -0.00000000  0.00000000  0.05775140
   0.66666700  0.33333300  0.19223940
   0.66666700  0.33333300  0.14108853
   0.33333300  0.66666700  0.27558645
   0.33333300  0.66666700  0.47446752
   0.00000000  0.00000000  0.35895297
  -0.00000000 -0.00000000  0.30775101
   0.66666700  0.33333300  0.44225565
   0.66666700  0.33333300  0.39108475
   0.66666700  0.33333300  0.23789880
  -0.00000000 -0.00000000  0.20832547
  -0.00000000 -0.00000000  0.01220131
   0.33333300  0.66666700  0.07122843
   0.66666700  0.33333300  0.04170634
   0.66666700  0.33333300  0.09543531
  -0.00000000  0.00000000  0.15456965
   0.33333300  0.66666700  0.12501355
   0.33333300  0.66666700  0.17876711
   0.66666700  0.33333300  0.48781963
  -0.00000000 -0.00000000  0.45831049
  -0.00000000 -0.00000000  0.26211026
   0.33333300  0.66666700  0.32121541
   0.66666700  0.33333300  0.29166862
   0.66666700  0.33333300  0.34544353
  -0.00000000 -0.00000000  0.40455471
   0.33333300  0.66666700  0.37498317
   0.33333300  0.66666700  0.42877869
Direct configuration=     9
   0.33333300  0.66666700  0.02561972
   0.33333300  0.66666700  0.22441549
  -0.00000000 -0.00000000  0.10890110
  -0.00000000  0.00000000  0.05775274
   0.66666700  0.33333300  0.19223954
   0.66666700  0.33333300  0.14108574
   0.33333300  0.66666700  0.27558732
   0.33333300  0.66666700  0.47445586
   0.00000000  0.00000000  0.35895297
  -0.00000000  0.00000000  0.30775048
   0.66666700  0.33333300  0.44225975
   0.66666700  0.33333300  0.39108814
   0.66666700  0.33333300  0.23789501
  -0.00000000  0.00000000  0.20832731
  -0.00000000  0.00000000  0.01221603
   0.33333300  0.66666700  0.07123003
   0.66666700  0.33333300  0.04171044
   0.66666700  0.33333300  0.09543550
  -0.00000000  0.00000000  0.15456934
   0.33333300  0.66666700  0.12501441
   0.33333300  0.66666700  0.17876722
   0.66666700  0.33333300  0.48782572
  -0.00000000  0.00000000  0.45831490
  -0.00000000  0.00000000  0.26211068
   0.33333300  0.66666700  0.32121816
   0.66666700  0.33333300  0.29166656
   0.66666700  0.33333300  0.34545210
  -0.00000000  0.00000000  0.40455197
   0.33333300  0.66666700  0.37498655
   0.33333300  0.66666700  0.42877648
Direct configuration=    10
   0.33333300  0.66666700  0.02561972
   0.33333300  0.66666700  0.22441712
  -0.00000000  0.00000000  0.10890339
  -0.00000000  0.00000000  0.05775423
   0.66666700  0.33333300  0.19223970
   0.66666700  0.33333300  0.14108261
   0.33333300  0.66666700  0.27558830
   0.33333300  0.66666700  0.47444280
   0.00000000  0.00000000  0.35895297
  -0.00000000  0.00000000  0.30774988
   0.66666700  0.33333300  0.44226435
   0.66666700  0.33333300  0.39109194
   0.66666700  0.33333300  0.23789077
  -0.00000000  0.00000000  0.20832938
  -0.00000000  0.00000000  0.01223250
   0.33333300  0.66666700  0.07123183
   0.66666700  0.33333300  0.04171503
   0.66666700  0.33333300  0.09543571
  -0.00000000  0.00000000  0.15456898
   0.33333300  0.66666700  0.12501537
   0.33333300  0.66666700  0.17876735
   0.66666700  0.33333300  0.48783253
  -0.00000000  0.00000000  0.45831983
  -0.00000000  0.00000000  0.26211115
   0.33333300  0.66666700  0.32122123
   0.66666700  0.33333300  0.29166425
   0.66666700  0.33333300  0.34546169
  -0.00000000  0.00000000  0.40454890
   0.33333300  0.66666700  0.37499033
   0.33333300  0.66666700  0.42877400
