  30  30   1   0
  0.6786351E+02  0.7500899E-09  0.3163512E-08  0.1732258E-08  0.5000000E-15
  1.000000000000000E-004
  CAR 
 Tetradymite Slab                        
      7.59038303    -13.94508112  301      0.32389613      1.00000000
    -13.945  0.0000E+00  0.0000E+00
    -13.873  0.0000E+00  0.0000E+00
    -13.802  0.0000E+00  0.0000E+00
    -13.730  0.0000E+00  0.0000E+00
    -13.658  0.0000E+00  0.0000E+00
    -13.586 -0.2605E-29 -0.1870E-30
    -13.514 -0.8664E-27 -0.6238E-28
    -13.443 -0.2061E-24 -0.1485E-25
    -13.371 -0.3788E-22 -0.2734E-23
    -13.299 -0.5381E-20 -0.3890E-21
    -13.227 -0.5907E-18 -0.4279E-19
    -13.155 -0.5011E-16 -0.3640E-17
    -13.084 -0.3186E-14 -0.2323E-15
    -13.012 -0.1607E-12 -0.1177E-13
    -12.940 -0.6258E-11 -0.4610E-12
    -12.868 -0.1880E-09 -0.1395E-10
    -12.797 -0.4350E-08 -0.3262E-09
    -12.725 -0.7748E-07 -0.5888E-08
    -12.653 -0.1060E-05 -0.8197E-07
    -12.581 -0.1110E-04 -0.8788E-06
    -12.509 -0.8859E-04 -0.7238E-05
    -12.438 -0.5347E-03 -0.4562E-04
    -12.366 -0.2409E-02 -0.2186E-03
    -12.294 -0.7902E-02 -0.7858E-03
    -12.222 -0.1777E-01 -0.2061E-02
    -12.150 -0.2214E-01 -0.3651E-02
    -12.079  0.8894E-02 -0.3012E-02
    -12.007  0.1125E+00  0.5066E-02
    -11.935  0.2920E+00  0.2603E-01
    -11.863  0.4913E+00  0.6129E-01
    -11.792  0.6306E+00  0.1066E+00
    -11.720  0.6690E+00  0.1546E+00
    -11.648  0.6219E+00  0.1992E+00
    -11.576  0.5235E+00  0.2368E+00
    -11.504  0.4019E+00  0.2657E+00
    -11.433  0.3034E+00  0.2874E+00
    -11.361  0.2972E+00  0.3088E+00
    -11.289  0.4152E+00  0.3386E+00
    -11.217  0.6144E+00  0.3827E+00
    -11.145  0.8148E+00  0.4412E+00
    -11.074  0.9398E+00  0.5086E+00
    -11.002  0.9397E+00  0.5761E+00
    -10.930  0.8370E+00  0.6362E+00
    -10.858  0.7309E+00  0.6886E+00
    -10.787  0.7006E+00  0.7389E+00
    -10.715  0.7242E+00  0.7909E+00
    -10.643  0.7242E+00  0.8429E+00
    -10.571  0.6644E+00  0.8906E+00
    -10.499  0.5791E+00  0.9322E+00
    -10.428  0.5416E+00  0.9710E+00
    -10.356  0.6178E+00  0.1015E+01
    -10.284  0.8239E+00  0.1075E+01
    -10.212  0.1112E+01  0.1154E+01
    -10.140  0.1407E+01  0.1255E+01
    -10.069  0.1642E+01  0.1373E+01
     -9.997  0.1756E+01  0.1499E+01
     -9.925  0.1668E+01  0.1619E+01
     -9.853  0.1333E+01  0.1715E+01
     -9.782  0.8386E+00  0.1775E+01
     -9.710  0.3753E+00  0.1802E+01
     -9.638  0.8410E-01  0.1808E+01
     -9.566 -0.2938E-01  0.1806E+01
     -9.494 -0.4188E-01  0.1803E+01
     -9.423 -0.2460E-01  0.1801E+01
     -9.351 -0.9905E-02  0.1800E+01
     -9.279 -0.3328E-02  0.1800E+01
     -9.207 -0.2378E-02  0.1800E+01
     -9.135 -0.5511E-02  0.1799E+01
     -9.064 -0.1182E-01  0.1799E+01
     -8.992 -0.1462E-01  0.1798E+01
     -8.920  0.5302E-02  0.1798E+01
     -8.848  0.7414E-01  0.1803E+01
     -8.777  0.1986E+00  0.1818E+01
     -8.705  0.3376E+00  0.1842E+01
     -8.633  0.4197E+00  0.1872E+01
     -8.561  0.4261E+00  0.1902E+01
     -8.489  0.4427E+00  0.1934E+01
     -8.418  0.5596E+00  0.1974E+01
     -8.346  0.7168E+00  0.2026E+01
     -8.274  0.7603E+00  0.2080E+01
     -8.202  0.6680E+00  0.2128E+01
     -8.131  0.5836E+00  0.2170E+01
     -8.059  0.5967E+00  0.2213E+01
     -7.987  0.6320E+00  0.2258E+01
     -7.915  0.6043E+00  0.2302E+01
     -7.843  0.5623E+00  0.2342E+01
     -7.772  0.6210E+00  0.2387E+01
     -7.700  0.8091E+00  0.2445E+01
     -7.628  0.1005E+01  0.2517E+01
     -7.556  0.1029E+01  0.2591E+01
     -7.484  0.8225E+00  0.2650E+01
     -7.413  0.5230E+00  0.2688E+01
     -7.341  0.3235E+00  0.2711E+01
     -7.269  0.2811E+00  0.2731E+01
     -7.197  0.3026E+00  0.2753E+01
     -7.126  0.2923E+00  0.2774E+01
     -7.054  0.2640E+00  0.2793E+01
     -6.982  0.2866E+00  0.2813E+01
     -6.910  0.3713E+00  0.2840E+01
     -6.838  0.4589E+00  0.2873E+01
     -6.767  0.4932E+00  0.2908E+01
     -6.695  0.4637E+00  0.2941E+01
     -6.623  0.3839E+00  0.2969E+01
     -6.551  0.2688E+00  0.2988E+01
     -6.479  0.1446E+00  0.2999E+01
     -6.408  0.4772E-01  0.3002E+01
     -6.336 -0.1716E-02  0.3002E+01
     -6.264 -0.1339E-01  0.3001E+01
     -6.192 -0.9269E-02  0.3000E+01
     -6.121 -0.3891E-02  0.3000E+01
     -6.049 -0.1152E-02  0.3000E+01
     -5.977 -0.2519E-03  0.3000E+01
     -5.905 -0.4151E-04  0.3000E+01
     -5.833 -0.5202E-05  0.3000E+01
     -5.762 -0.4980E-06  0.3000E+01
     -5.690 -0.3653E-07  0.3000E+01
     -5.618 -0.2057E-08  0.3000E+01
     -5.546 -0.8899E-10  0.3000E+01
     -5.474 -0.2960E-11  0.3000E+01
     -5.403 -0.7575E-13  0.3000E+01
     -5.331 -0.1465E-14  0.3000E+01
     -5.259 -0.9643E-15  0.3000E+01
     -5.187 -0.4941E-13  0.3000E+01
     -5.116 -0.1997E-11  0.3000E+01
     -5.044 -0.6207E-10  0.3000E+01
     -4.972 -0.1483E-08  0.3000E+01
     -4.900 -0.2722E-07  0.3000E+01
     -4.828 -0.3829E-06  0.3000E+01
     -4.757 -0.4118E-05  0.3000E+01
     -4.685 -0.3372E-04  0.3000E+01
     -4.613 -0.2089E-03  0.3000E+01
     -4.541 -0.9673E-03  0.3000E+01
     -4.469 -0.3274E-02  0.3000E+01
     -4.398 -0.7688E-02  0.2999E+01
     -4.326 -0.1059E-01  0.2998E+01
     -4.254  0.7534E-04  0.2998E+01
     -4.182  0.3996E-01  0.3001E+01
     -4.111  0.1125E+00  0.3009E+01
     -4.039  0.2033E+00  0.3024E+01
     -3.967  0.2972E+00  0.3045E+01
     -3.895  0.3871E+00  0.3073E+01
     -3.823  0.4541E+00  0.3106E+01
     -3.752  0.4706E+00  0.3139E+01
     -3.680  0.4496E+00  0.3172E+01
     -3.608  0.4714E+00  0.3206E+01
     -3.536  0.6264E+00  0.3250E+01
     -3.464  0.9242E+00  0.3317E+01
     -3.393  0.1259E+01  0.3407E+01
     -3.321  0.1471E+01  0.3513E+01
     -3.249  0.1471E+01  0.3618E+01
     -3.177  0.1311E+01  0.3712E+01
     -3.106  0.1147E+01  0.3795E+01
     -3.034  0.1099E+01  0.3874E+01
     -2.962  0.1134E+01  0.3955E+01
     -2.890  0.1137E+01  0.4037E+01
     -2.818  0.1082E+01  0.4114E+01
     -2.747  0.1081E+01  0.4192E+01
     -2.675  0.1209E+01  0.4279E+01
     -2.603  0.1385E+01  0.4378E+01
     -2.531  0.1474E+01  0.4484E+01
     -2.460  0.1442E+01  0.4588E+01
     -2.388  0.1363E+01  0.4685E+01
     -2.316  0.1342E+01  0.4782E+01
     -2.244  0.1447E+01  0.4886E+01
     -2.172  0.1661E+01  0.5005E+01
     -2.101  0.1903E+01  0.5141E+01
     -2.029  0.2075E+01  0.5290E+01
     -1.957  0.2108E+01  0.5442E+01
     -1.885  0.1974E+01  0.5583E+01
     -1.813  0.1706E+01  0.5706E+01
     -1.742  0.1386E+01  0.5805E+01
     -1.670  0.1074E+01  0.5883E+01
     -1.598  0.8055E+00  0.5940E+01
     -1.526  0.6494E+00  0.5987E+01
     -1.455  0.6651E+00  0.6035E+01
     -1.383  0.8146E+00  0.6093E+01
     -1.311  0.9927E+00  0.6164E+01
     -1.239  0.1122E+01  0.6245E+01
     -1.167  0.1182E+01  0.6330E+01
     -1.096  0.1183E+01  0.6415E+01
     -1.024  0.1154E+01  0.6498E+01
     -0.952  0.1146E+01  0.6580E+01
     -0.880  0.1217E+01  0.6667E+01
     -0.808  0.1378E+01  0.6766E+01
     -0.737  0.1541E+01  0.6877E+01
     -0.665  0.1564E+01  0.6989E+01
     -0.593  0.1377E+01  0.7088E+01
     -0.521  0.1078E+01  0.7165E+01
     -0.450  0.8838E+00  0.7229E+01
     -0.378  0.9551E+00  0.7297E+01
     -0.306  0.1261E+01  0.7388E+01
     -0.234  0.1630E+01  0.7505E+01
     -0.162  0.1918E+01  0.7642E+01
     -0.091  0.2089E+01  0.7792E+01
     -0.019  0.2144E+01  0.7946E+01
      0.053  0.2053E+01  0.8094E+01
      0.125  0.1780E+01  0.8222E+01
      0.197  0.1342E+01  0.8318E+01
      0.268  0.8266E+00  0.8377E+01
      0.340  0.3684E+00  0.8404E+01
      0.412  0.7597E-01  0.8409E+01
      0.484 -0.3952E-01  0.8406E+01
      0.555 -0.4835E-01  0.8403E+01
      0.627 -0.2646E-01  0.8401E+01
      0.699 -0.1042E-01  0.8400E+01
      0.771 -0.6338E-02  0.8400E+01
      0.843 -0.1196E-01  0.8399E+01
      0.914 -0.2165E-01  0.8397E+01
      0.986 -0.1435E-01  0.8396E+01
      1.058  0.4840E-01  0.8400E+01
      1.130  0.1823E+00  0.8413E+01
      1.202  0.3354E+00  0.8437E+01
      1.273  0.4339E+00  0.8468E+01
      1.345  0.4854E+00  0.8503E+01
      1.417  0.5687E+00  0.8544E+01
      1.489  0.7257E+00  0.8596E+01
      1.560  0.9399E+00  0.8663E+01
      1.632  0.1192E+01  0.8749E+01
      1.704  0.1457E+01  0.8853E+01
      1.776  0.1669E+01  0.8973E+01
      1.848  0.1756E+01  0.9099E+01
      1.919  0.1702E+01  0.9221E+01
      1.991  0.1566E+01  0.9334E+01
      2.063  0.1438E+01  0.9437E+01
      2.135  0.1383E+01  0.9536E+01
      2.207  0.1411E+01  0.9638E+01
      2.278  0.1483E+01  0.9744E+01
      2.350  0.1537E+01  0.9854E+01
      2.422  0.1541E+01  0.9965E+01
      2.494  0.1503E+01  0.1007E+02
      2.565  0.1444E+01  0.1018E+02
      2.637  0.1378E+01  0.1028E+02
      2.709  0.1325E+01  0.1037E+02
      2.781  0.1307E+01  0.1046E+02
      2.853  0.1320E+01  0.1056E+02
      2.924  0.1346E+01  0.1066E+02
      2.996  0.1383E+01  0.1076E+02
      3.068  0.1438E+01  0.1086E+02
      3.140  0.1500E+01  0.1097E+02
      3.212  0.1563E+01  0.1108E+02
      3.283  0.1621E+01  0.1119E+02
      3.355  0.1630E+01  0.1131E+02
      3.427  0.1534E+01  0.1142E+02
      3.499  0.1329E+01  0.1152E+02
      3.570  0.1073E+01  0.1159E+02
      3.642  0.8124E+00  0.1165E+02
      3.714  0.5698E+00  0.1169E+02
      3.786  0.3771E+00  0.1172E+02
      3.858  0.2808E+00  0.1174E+02
      3.929  0.2842E+00  0.1176E+02
      4.001  0.3304E+00  0.1178E+02
      4.073  0.3569E+00  0.1181E+02
      4.145  0.3446E+00  0.1183E+02
      4.216  0.3231E+00  0.1186E+02
      4.288  0.3435E+00  0.1188E+02
      4.360  0.4332E+00  0.1191E+02
      4.432  0.5661E+00  0.1195E+02
      4.504  0.6870E+00  0.1200E+02
      4.575  0.7597E+00  0.1206E+02
      4.647  0.7811E+00  0.1211E+02
      4.719  0.7747E+00  0.1217E+02
      4.791  0.7874E+00  0.1223E+02
      4.863  0.8604E+00  0.1229E+02
      4.934  0.9786E+00  0.1236E+02
      5.006  0.1078E+01  0.1244E+02
      5.078  0.1114E+01  0.1252E+02
      5.150  0.1075E+01  0.1259E+02
      5.221  0.9507E+00  0.1266E+02
      5.293  0.7435E+00  0.1271E+02
      5.365  0.5073E+00  0.1275E+02
      5.437  0.3163E+00  0.1277E+02
      5.509  0.1945E+00  0.1279E+02
      5.580  0.1160E+00  0.1280E+02
      5.652  0.5663E-01  0.1280E+02
      5.724  0.1555E-01  0.1280E+02
      5.796 -0.3839E-02  0.1280E+02
      5.868 -0.7324E-02  0.1280E+02
      5.939 -0.4673E-02  0.1280E+02
      6.011 -0.1937E-02  0.1280E+02
      6.083 -0.5800E-03  0.1280E+02
      6.155 -0.1297E-03  0.1280E+02
      6.226 -0.2197E-04  0.1280E+02
      6.298 -0.2834E-05  0.1280E+02
      6.370 -0.2794E-06  0.1280E+02
      6.442 -0.2109E-07  0.1280E+02
      6.514 -0.1220E-08  0.1280E+02
      6.585 -0.5416E-10  0.1280E+02
      6.657 -0.1847E-11  0.1280E+02
      6.729 -0.4839E-13  0.1280E+02
      6.801 -0.9648E-15  0.1280E+02
      6.873 -0.2209E-16  0.1280E+02
      6.944  0.0000E+00  0.1280E+02
      7.016  0.0000E+00  0.1280E+02
      7.088  0.0000E+00  0.1280E+02
      7.160  0.0000E+00  0.1280E+02
      7.231  0.0000E+00  0.1280E+02
      7.303  0.0000E+00  0.1280E+02
      7.375  0.0000E+00  0.1280E+02
      7.447  0.0000E+00  0.1280E+02
      7.519  0.0000E+00  0.1280E+02
      7.590  0.0000E+00  0.1280E+02
      7.59038303    -13.94508112  301      0.32389613      1.00000000
    -13.945  0.0000E+00  0.0000E+00  0.0000E+00  0.0000E+00  0.0000E+00  0.0000E+00  0.0000E+00  0.0000E+00  0.0000E+00
    -13.873  0.0000E+00  0.0000E+00  0.0000E+00  0.0000E+00  0.0000E+00  0.0000E+00  0.0000E+00  0.0000E+00  0.0000E+00
    -13.802  0.0000E+00  0.0000E+00  0.0000E+00  0.0000E+00  0.0000E+00  0.0000E+00  0.0000E+00  0.0000E+00  0.0000E+00
    -13.730  0.0000E+00  0.0000E+00  0.0000E+00  0.0000E+00  0.0000E+00  0.0000E+00  0.0000E+00  0.0000E+00  0.0000E+00
    -13.658  0.0000E+00  0.0000E+00  0.0000E+00  0.0000E+00  0.0000E+00  0.0000E+00  0.0000E+00  0.0000E+00  0.0000E+00
    -13.586 -0.1249E-32 -0.7123E-35 -0.1675E-34 -0.6172E-35 -0.2464E-36 -0.7125E-36 -0.7160E-37 -0.1209E-35 -0.9815E-38
    -13.514 -0.4632E-30 -0.2627E-32 -0.5966E-32 -0.2833E-32 -0.1159E-33 -0.2358E-33 -0.3276E-34 -0.4185E-33 -0.5450E-35
    -13.443 -0.1124E-27 -0.6368E-30 -0.1437E-29 -0.7097E-30 -0.2913E-31 -0.5606E-31 -0.8191E-32 -0.1003E-30 -0.1394E-32
    -13.371 -0.2116E-25 -0.1197E-27 -0.2681E-27 -0.1384E-27 -0.5698E-29 -0.1030E-28 -0.1594E-29 -0.1862E-28 -0.2777E-30
    -13.299 -0.3091E-23 -0.1746E-25 -0.3877E-25 -0.2101E-25 -0.8678E-27 -0.1462E-26 -0.2413E-27 -0.2676E-26 -0.4309E-28
    -13.227 -0.3506E-21 -0.1977E-23 -0.4348E-23 -0.2486E-23 -0.1030E-24 -0.1605E-24 -0.2847E-25 -0.2979E-24 -0.5207E-26
    -13.155 -0.3093E-19 -0.1738E-21 -0.3785E-21 -0.2294E-21 -0.9533E-23 -0.1362E-22 -0.2619E-23 -0.2571E-22 -0.4903E-24
    -13.084 -0.2078E-17 -0.1162E-19 -0.2493E-19 -0.1629E-19 -0.6792E-21 -0.8670E-21 -0.1848E-21 -0.1677E-20 -0.3547E-22
    -13.012 -0.1103E-15 -0.6123E-18 -0.1304E-17 -0.9054E-18 -0.3775E-19 -0.4388E-19 -0.1026E-19 -0.8677E-19 -0.1996E-20
    -12.940 -0.4612E-14 -0.2531E-16 -0.5338E-16 -0.3999E-16 -0.1667E-17 -0.1719E-17 -0.4511E-18 -0.3507E-17 -0.8885E-19
    -12.868 -0.1516E-12 -0.8179E-15 -0.1711E-14 -0.1392E-14 -0.5794E-16 -0.5228E-16 -0.1564E-16 -0.1109E-15 -0.3093E-17
    -12.797 -0.3953E-11 -0.2075E-13 -0.4329E-13 -0.3852E-13 -0.1595E-14 -0.1239E-14 -0.4312E-15 -0.2761E-14 -0.8452E-16
    -12.725 -0.8244E-10 -0.4156E-12 -0.8719E-12 -0.8528E-12 -0.3503E-13 -0.2303E-13 -0.9516E-14 -0.5468E-13 -0.1822E-14
    -12.653 -0.1391E-08 -0.6626E-11 -0.1415E-10 -0.1523E-10 -0.6183E-12 -0.3394E-12 -0.1697E-12 -0.8719E-12 -0.3120E-13
    -12.581 -0.1915E-07 -0.8492E-10 -0.1877E-09 -0.2208E-09 -0.8828E-11 -0.4030E-11 -0.2461E-11 -0.1135E-10 -0.4279E-12
    -12.509 -0.2163E-06 -0.8832E-09 -0.2052E-08 -0.2600E-08 -0.1022E-09 -0.3925E-10 -0.2905E-10 -0.1217E-09 -0.4734E-11
    -12.438 -0.1992E-05 -0.7488E-08 -0.1850E-07 -0.2472E-07 -0.9542E-09 -0.3177E-09 -0.2777E-09 -0.1076E-08 -0.4242E-10
    -12.366 -0.1475E-04 -0.5154E-07 -0.1362E-06 -0.1874E-06 -0.7105E-08 -0.2137E-08 -0.2120E-08 -0.7738E-08 -0.3071E-09
    -12.294 -0.8599E-04 -0.2836E-06 -0.8015E-06 -0.1111E-05 -0.4141E-07 -0.1173E-07 -0.1270E-07 -0.4425E-07 -0.1776E-08
    -12.222 -0.3834E-03 -0.1216E-05 -0.3675E-05 -0.5034E-05 -0.1842E-06 -0.5086E-07 -0.5834E-07 -0.1950E-06 -0.8054E-08
    -12.150 -0.1257E-02 -0.3895E-05 -0.1269E-04 -0.1683E-04 -0.6015E-06 -0.1662E-06 -0.1990E-06 -0.6339E-06 -0.2785E-07
    -12.079 -0.2797E-02 -0.8613E-05 -0.3129E-04 -0.3878E-04 -0.1333E-05 -0.3794E-06 -0.4757E-06 -0.1399E-05 -0.7001E-07
    -12.007 -0.3197E-02 -0.1012E-04 -0.4780E-04 -0.4947E-04 -0.1513E-05 -0.4837E-06 -0.6709E-06 -0.1570E-05 -0.1138E-06
    -11.935  0.2874E-02  0.7380E-05 -0.1391E-04  0.1994E-04  0.1392E-05  0.1852E-06 -0.1157E-08  0.1524E-05 -0.5912E-07
    -11.863  0.2127E-01  0.6218E-04  0.1462E-03  0.2542E-03  0.1014E-04  0.2447E-05  0.2621E-05  0.1073E-04  0.2711E-06
    -11.792  0.4959E-01  0.1501E-03  0.4700E-03  0.6465E-03  0.2358E-04  0.6255E-05  0.7442E-05  0.2470E-04  0.1006E-05
    -11.720  0.7349E-01  0.2331E-03  0.9038E-03  0.1046E-02  0.3494E-04  0.1025E-04  0.1320E-04  0.3628E-04  0.2097E-05
    -11.648  0.7812E-01  0.2693E-03  0.1357E-02  0.1288E-02  0.3734E-04  0.1301E-04  0.1833E-04  0.3860E-04  0.3367E-05
    -11.576  0.6253E-01  0.2506E-03  0.1762E-02  0.1345E-02  0.3052E-04  0.1417E-04  0.2226E-04  0.3180E-04  0.4570E-05
    -11.504  0.3822E-01  0.1909E-03  0.1988E-02  0.1263E-02  0.1984E-04  0.1322E-04  0.2410E-04  0.2105E-04  0.5168E-05
    -11.433  0.1646E-01  0.9802E-04  0.1812E-02  0.1029E-02  0.1022E-04  0.8587E-05  0.2154E-04  0.9965E-05  0.4397E-05
    -11.361  0.3894E-02  0.7738E-05  0.1234E-02  0.6593E-03  0.4051E-05  0.1893E-05  0.1425E-04  0.1145E-05  0.2511E-05
    -11.289  0.9152E-02  0.6138E-04  0.7728E-03  0.3743E-03  0.3709E-05  0.4892E-05  0.7722E-05  0.3751E-05  0.2118E-05
    -11.217  0.4237E-01  0.4716E-03  0.1086E-02  0.4751E-03  0.1140E-04  0.3695E-04  0.1000E-04  0.3434E-04  0.6958E-05
    -11.145  0.9790E-01  0.1275E-02  0.2197E-02  0.1003E-02  0.2475E-04  0.1041E-03  0.2350E-04  0.9841E-04  0.1780E-04
    -11.074  0.1440E+00  0.2099E-02  0.3334E-02  0.1621E-02  0.3611E-04  0.1771E-03  0.4106E-04  0.1679E-03  0.2948E-04
    -11.002  0.1514E+00  0.2378E-02  0.3764E-02  0.1917E-02  0.4063E-04  0.2085E-03  0.5237E-04  0.1956E-03  0.3410E-04
    -10.930  0.1330E+00  0.1934E-02  0.3702E-02  0.1841E-02  0.4422E-04  0.1850E-03  0.5598E-04  0.1665E-03  0.2897E-04
    -10.858  0.1283E+00  0.1171E-02  0.3975E-02  0.1720E-02  0.5683E-04  0.1433E-03  0.6056E-04  0.1158E-03  0.1946E-04
    -10.787  0.1447E+00  0.5909E-03  0.4792E-02  0.1743E-02  0.7477E-04  0.1209E-03  0.6931E-04  0.8217E-04  0.1245E-04
    -10.715  0.1520E+00  0.3112E-03  0.5612E-02  0.1694E-02  0.7943E-04  0.1176E-03  0.7135E-04  0.6849E-04  0.9458E-05
    -10.643  0.1429E+00  0.1958E-03  0.6263E-02  0.1395E-02  0.6098E-04  0.1208E-03  0.5845E-04  0.6234E-04  0.8284E-05
    -10.571  0.1514E+00  0.1762E-03  0.7081E-02  0.1099E-02  0.3248E-04  0.1300E-03  0.3969E-04  0.6402E-04  0.7793E-05
    -10.499  0.1945E+00  0.2920E-03  0.7789E-02  0.1125E-02  0.1197E-04  0.1421E-03  0.2859E-04  0.7617E-04  0.7902E-05
    -10.428  0.2348E+00  0.7115E-03  0.7538E-02  0.1416E-02  0.4764E-05  0.1473E-03  0.2688E-04  0.9053E-04  0.8020E-05
    -10.356  0.2293E+00  0.1955E-02  0.6284E-02  0.1792E-02  0.1489E-04  0.1600E-03  0.3071E-04  0.1058E-03  0.9467E-05
    -10.284  0.1859E+00  0.4672E-02  0.5033E-02  0.2317E-02  0.6181E-04  0.2256E-03  0.4266E-04  0.1410E-03  0.1780E-04
    -10.212  0.1411E+00  0.8614E-02  0.4406E-02  0.3068E-02  0.1685E-03  0.3674E-03  0.6888E-04  0.2107E-03  0.3834E-04
    -10.140  0.1109E+00  0.1219E-01  0.3941E-02  0.3876E-02  0.3349E-03  0.5459E-03  0.1125E-03  0.2983E-03  0.6951E-04
    -10.069  0.9240E-01  0.1383E-01  0.3162E-02  0.4762E-02  0.5401E-03  0.6929E-03  0.1790E-03  0.3727E-03  0.1041E-03
     -9.997  0.8621E-01  0.1337E-01  0.2439E-02  0.6384E-02  0.7686E-03  0.7760E-03  0.2818E-03  0.4228E-03  0.1366E-03
     -9.925  0.9021E-01  0.1147E-01  0.2362E-02  0.9381E-02  0.1000E-02  0.7996E-03  0.4235E-03  0.4527E-03  0.1628E-03
     -9.853  0.9006E-01  0.8550E-02  0.2848E-02  0.1290E-01  0.1159E-02  0.7538E-03  0.5573E-03  0.4488E-03  0.1730E-03
     -9.782  0.7290E-01  0.5047E-02  0.3184E-02  0.1441E-01  0.1120E-02  0.6114E-03  0.5919E-03  0.3825E-03  0.1551E-03
     -9.710  0.4282E-01  0.1979E-02  0.2760E-02  0.1204E-01  0.8386E-03  0.3896E-03  0.4748E-03  0.2555E-03  0.1093E-03
     -9.638  0.1516E-01  0.1960E-03  0.1681E-02  0.6965E-02  0.4422E-03  0.1699E-03  0.2652E-03  0.1180E-03  0.5447E-04
     -9.566  0.8058E-04 -0.3579E-03  0.5972E-03  0.2267E-02  0.1250E-03  0.2898E-04  0.8217E-04  0.2426E-04  0.1392E-04
     -9.494 -0.3691E-02 -0.3034E-03 -0.4716E-05 -0.1511E-03 -0.2259E-04 -0.2219E-04 -0.8524E-05 -0.1245E-04 -0.3815E-05
     -9.423 -0.2593E-02 -0.1420E-03 -0.1481E-03 -0.6418E-03 -0.4572E-04 -0.2277E-04 -0.2541E-04 -0.1463E-04 -0.6061E-05
     -9.351 -0.1096E-02 -0.4644E-04 -0.9894E-04 -0.4001E-03 -0.2658E-04 -0.1138E-04 -0.1542E-04 -0.7608E-05 -0.3400E-05
     -9.279 -0.5203E-03 -0.1136E-04 -0.3901E-04 -0.1508E-03 -0.9724E-05 -0.3833E-05 -0.5741E-05 -0.2621E-05 -0.1226E-05
     -9.207 -0.1255E-02 -0.2406E-05 -0.1268E-04 -0.4001E-04 -0.2549E-05 -0.9628E-06 -0.1509E-05 -0.6587E-06 -0.3233E-06
     -9.135 -0.4898E-02 -0.1490E-05 -0.1131E-04 -0.9552E-05 -0.6503E-06 -0.2882E-06 -0.3398E-06 -0.1667E-06 -0.9982E-07
     -9.064 -0.1436E-01 -0.3297E-05 -0.2707E-04 -0.8813E-05 -0.6813E-06 -0.4022E-06 -0.2482E-06 -0.2264E-06 -0.1359E-06
     -8.992 -0.2767E-01 -0.5466E-05 -0.4996E-04 -0.2288E-04 -0.1596E-05 -0.8773E-06 -0.6045E-06 -0.6959E-06 -0.2802E-06
     -8.920 -0.2298E-01 -0.1936E-05 -0.3586E-04 -0.4445E-04 -0.2635E-05 -0.1279E-05 -0.1152E-05 -0.1580E-05 -0.3406E-06
     -8.848  0.4885E-01  0.1713E-04  0.1052E-03 -0.3609E-04 -0.1138E-05 -0.4393E-06 -0.8974E-06 -0.2038E-05  0.1708E-06
     -8.777  0.2298E+00  0.5457E-04  0.4388E-03  0.8428E-04  0.7673E-05  0.3388E-05  0.2292E-05  0.3354E-06  0.1889E-05
     -8.705  0.4854E+00  0.9530E-04  0.8824E-03  0.3684E-03  0.2577E-04  0.1134E-04  0.9755E-05  0.8154E-05  0.4818E-05
     -8.633  0.6917E+00  0.1165E-03  0.1204E-02  0.7215E-03  0.4641E-04  0.2349E-04  0.1904E-04  0.2166E-04  0.7710E-05
     -8.561  0.7494E+00  0.1131E-03  0.1244E-02  0.9799E-03  0.6043E-04  0.4067E-04  0.2581E-04  0.4000E-04  0.9109E-05
     -8.489  0.7115E+00  0.1023E-03  0.1135E-02  0.1168E-02  0.7149E-04  0.6436E-04  0.3048E-04  0.6439E-04  0.9338E-05
     -8.418  0.7099E+00  0.1011E-03  0.1136E-02  0.1453E-02  0.9097E-04  0.9024E-04  0.3725E-04  0.9269E-04  0.1002E-04
     -8.346  0.7577E+00  0.1119E-03  0.1246E-02  0.1765E-02  0.1148E-03  0.1039E-03  0.4471E-04  0.1112E-03  0.1129E-04
     -8.274  0.7621E+00  0.1387E-03  0.1216E-02  0.1831E-02  0.1284E-03  0.9270E-04  0.4651E-04  0.1057E-03  0.1174E-04
     -8.202  0.7226E+00  0.1889E-03  0.1023E-02  0.1636E-02  0.1334E-03  0.6302E-04  0.4278E-04  0.8142E-04  0.1123E-04
     -8.131  0.7200E+00  0.2377E-03  0.9592E-03  0.1409E-02  0.1396E-03  0.3526E-04  0.3939E-04  0.5723E-04  0.1069E-04
     -8.059  0.7265E+00  0.2294E-03  0.1125E-02  0.1211E-02  0.1355E-03  0.2304E-04  0.3620E-04  0.4364E-04  0.9708E-05
     -7.987  0.6380E+00  0.1607E-03  0.1198E-02  0.9869E-03  0.1050E-03  0.2776E-04  0.2818E-04  0.4317E-04  0.7168E-05
     -7.915  0.4738E+00  0.1461E-03  0.9363E-03  0.9005E-03  0.6187E-04  0.4871E-04  0.1694E-04  0.6171E-04  0.3782E-05
     -7.843  0.3643E+00  0.3928E-03  0.6075E-03  0.1221E-02  0.4129E-04  0.8369E-04  0.1193E-04  0.9909E-04  0.1482E-05
     -7.772  0.3693E+00  0.1122E-02  0.7065E-03  0.1991E-02  0.6412E-04  0.1239E-03  0.2087E-04  0.1383E-03  0.1110E-05
     -7.700  0.4336E+00  0.2385E-02  0.1351E-02  0.2932E-02  0.1184E-03  0.1603E-03  0.4163E-04  0.1598E-03  0.1997E-05
     -7.628  0.4809E+00  0.3801E-02  0.2078E-02  0.3529E-02  0.1655E-03  0.1876E-03  0.6136E-04  0.1586E-03  0.3031E-05
     -7.556  0.4693E+00  0.4619E-02  0.2285E-02  0.3324E-02  0.1676E-03  0.1963E-03  0.6559E-04  0.1378E-03  0.3433E-05
     -7.484  0.3905E+00  0.4312E-02  0.1902E-02  0.2396E-02  0.1259E-03  0.1746E-03  0.5199E-04  0.1018E-03  0.2993E-05
     -7.413  0.2715E+00  0.3071E-02  0.1507E-02  0.1433E-02  0.8316E-04  0.1245E-03  0.3299E-04  0.6029E-04  0.2023E-05
     -7.341  0.1616E+00  0.1610E-02  0.1666E-02  0.1069E-02  0.7862E-04  0.6712E-04  0.2225E-04  0.2664E-04  0.1024E-05
     -7.269  0.9374E-01  0.5540E-03  0.2235E-02  0.1253E-02  0.1049E-03  0.2479E-04  0.2153E-04  0.8147E-05  0.3405E-06
     -7.197  0.6688E-01  0.6538E-04  0.2538E-02  0.1444E-02  0.1225E-03  0.5631E-05  0.2290E-04  0.2075E-05  0.5644E-07
     -7.126  0.6828E-01 -0.4384E-04  0.2250E-02  0.1325E-02  0.1112E-03  0.4747E-05  0.2044E-04  0.1771E-05  0.9947E-07
     -7.054  0.9369E-01 -0.1153E-04  0.1735E-02  0.1072E-02  0.8846E-04  0.1479E-04  0.1589E-04  0.2990E-05  0.3936E-06
     -6.982  0.1393E+00  0.3970E-04  0.1440E-02  0.9471E-03  0.7606E-04  0.3130E-04  0.1312E-04  0.4493E-05  0.9111E-06
     -6.910  0.1916E+00  0.7879E-04  0.1356E-02  0.9507E-03  0.7315E-04  0.5117E-04  0.1229E-04  0.5930E-05  0.1597E-05
     -6.838  0.2298E+00  0.1000E-03  0.1236E-02  0.9331E-03  0.6761E-04  0.6893E-04  0.1126E-04  0.6781E-05  0.2240E-05
     -6.767  0.2331E+00  0.9926E-04  0.9775E-03  0.8159E-03  0.5475E-04  0.7602E-04  0.9146E-05  0.6544E-05  0.2489E-05
     -6.695  0.1922E+00  0.7907E-04  0.6534E-03  0.6151E-03  0.3790E-04  0.6696E-04  0.6519E-05  0.5223E-05  0.2135E-05
     -6.623  0.1228E+00  0.5131E-04  0.3645E-03  0.3825E-03  0.2158E-04  0.4581E-04  0.4043E-05  0.3412E-05  0.1358E-05
     -6.551  0.5583E-01  0.2769E-04  0.1607E-03  0.1772E-03  0.8988E-05  0.2318E-04  0.2022E-05  0.1798E-05  0.5841E-06
     -6.479  0.1321E-01  0.1212E-04  0.4481E-04  0.4379E-04  0.1619E-05  0.7369E-05  0.6471E-06  0.7039E-06  0.1069E-06
     -6.408 -0.3771E-02  0.3317E-05 -0.4770E-05 -0.1267E-04 -0.1126E-05 -0.9023E-08 -0.2905E-07  0.1210E-06 -0.6353E-07
     -6.336 -0.5926E-02 -0.6339E-06 -0.1589E-04 -0.2059E-04 -0.1275E-05 -0.1788E-05 -0.1946E-06 -0.9128E-07 -0.7031E-07
     -6.264 -0.3544E-02 -0.1472E-05 -0.1176E-04 -0.1236E-04 -0.6998E-06 -0.1345E-05 -0.1412E-06 -0.1049E-06 -0.3706E-07
     -6.192 -0.1433E-02 -0.9970E-06 -0.5678E-05 -0.4896E-05 -0.2624E-06 -0.6294E-06 -0.6366E-07 -0.5944E-07 -0.1343E-07
     -6.121 -0.4332E-03 -0.4281E-06 -0.2013E-05 -0.1421E-05 -0.7273E-07 -0.2147E-06 -0.2071E-07 -0.2297E-07 -0.3637E-08
     -6.049 -0.1014E-03 -0.1302E-06 -0.5414E-06 -0.3141E-06 -0.1538E-07 -0.5574E-07 -0.5103E-08 -0.6496E-08 -0.7590E-09
     -5.977 -0.1863E-04 -0.2918E-07 -0.1117E-06 -0.5390E-07 -0.2523E-08 -0.1118E-07 -0.9709E-09 -0.1381E-08 -0.1240E-09
     -5.905 -0.2698E-05 -0.4900E-08 -0.1773E-07 -0.7259E-08 -0.3243E-09 -0.1738E-08 -0.1439E-09 -0.2232E-09 -0.1601E-10
     -5.833 -0.3078E-06 -0.6228E-09 -0.2169E-08 -0.7714E-09 -0.3288E-10 -0.2095E-09 -0.1665E-10 -0.2759E-10 -0.1638E-11
     -5.762 -0.2757E-07 -0.6025E-10 -0.2045E-09 -0.6480E-10 -0.2638E-11 -0.1957E-10 -0.1504E-11 -0.2617E-11 -0.1330E-12
     -5.690 -0.1933E-08 -0.4453E-11 -0.1486E-10 -0.4298E-11 -0.1677E-12 -0.1415E-11 -0.1058E-12 -0.1908E-12 -0.8549E-14
     -5.618 -0.1056E-09 -0.2520E-12 -0.8317E-12 -0.2245E-12 -0.8435E-14 -0.7899E-13 -0.5790E-14 -0.1070E-13 -0.4337E-15
     -5.546 -0.4483E-11 -0.1094E-13 -0.3587E-13 -0.9202E-14 -0.3347E-15 -0.3404E-14 -0.2458E-15 -0.4618E-15 -0.1729E-16
     -5.474 -0.1476E-12 -0.3648E-15 -0.1192E-14 -0.2949E-15 -0.1045E-16 -0.1132E-15 -0.8086E-17 -0.1534E-16 -0.5396E-18
     -5.403 -0.3754E-14 -0.9348E-17 -0.3047E-16 -0.7345E-17 -0.2545E-18 -0.2900E-17 -0.2055E-18 -0.3925E-18 -0.1310E-19
     -5.331 -0.7041E-16 -0.2143E-18 -0.6324E-18 -0.1459E-18 -0.4301E-20 -0.5552E-19 -0.4000E-20 -0.7495E-20 -0.2262E-21
     -5.259 -0.2216E-17 -0.2268E-17 -0.3428E-17 -0.1062E-17 -0.4640E-20 -0.1166E-19 -0.1194E-19 -0.1105E-20 -0.5898E-22
     -5.187 -0.2972E-16 -0.1191E-15 -0.1794E-15 -0.5578E-16 -0.2391E-18 -0.5492E-18 -0.6261E-18 -0.5322E-19 -0.3419E-20
     -5.116 -0.1200E-14 -0.4819E-14 -0.7247E-14 -0.2264E-14 -0.9712E-17 -0.2220E-16 -0.2553E-16 -0.2287E-17 -0.1579E-18
     -5.044 -0.3727E-13 -0.1503E-12 -0.2255E-12 -0.7093E-13 -0.3057E-15 -0.6905E-15 -0.8044E-15 -0.7674E-16 -0.5678E-17
     -4.972 -0.8892E-12 -0.3614E-11 -0.5410E-11 -0.1715E-11 -0.7487E-14 -0.1650E-13 -0.1960E-13 -0.2018E-14 -0.1588E-15
     -4.900 -0.1629E-10 -0.6705E-10 -0.1001E-09 -0.3207E-10 -0.1438E-12 -0.3028E-12 -0.3699E-12 -0.4173E-13 -0.3445E-14
     -4.828 -0.2288E-09 -0.9615E-09 -0.1430E-08 -0.4647E-09 -0.2189E-11 -0.4259E-11 -0.5421E-11 -0.6830E-12 -0.5774E-13
     -4.757 -0.2463E-08 -0.1069E-07 -0.1584E-07 -0.5238E-08 -0.2686E-10 -0.4578E-10 -0.6199E-10 -0.8905E-11 -0.7446E-12
     -4.685 -0.2028E-07 -0.9270E-07 -0.1368E-06 -0.4624E-07 -0.2702E-09 -0.3747E-09 -0.5569E-09 -0.9321E-10 -0.7345E-11
     -4.613 -0.1277E-06 -0.6332E-06 -0.9307E-06 -0.3230E-06 -0.2258E-08 -0.2320E-08 -0.3970E-08 -0.7887E-09 -0.5507E-10
     -4.541 -0.6155E-06 -0.3455E-05 -0.5063E-05 -0.1809E-05 -0.1568E-07 -0.1074E-07 -0.2274E-07 -0.5415E-08 -0.3113E-09
     -4.469 -0.2273E-05 -0.1532E-04 -0.2241E-04 -0.8244E-05 -0.8913E-07 -0.3632E-07 -0.1061E-06 -0.3012E-07 -0.1316E-08
     -4.398 -0.6444E-05 -0.5589E-04 -0.8178E-04 -0.3079E-04 -0.4042E-06 -0.8526E-07 -0.4049E-06 -0.1347E-06 -0.4148E-08
     -4.326 -0.1394E-04 -0.1672E-03 -0.2451E-03 -0.9359E-04 -0.1415E-05 -0.1174E-06 -0.1256E-05 -0.4765E-06 -0.9954E-08
     -4.254 -0.2166E-04 -0.3974E-03 -0.5846E-03 -0.2239E-03 -0.3660E-05 -0.3884E-09 -0.3066E-05 -0.1302E-05 -0.1986E-07
     -4.182 -0.1584E-04 -0.6877E-03 -0.1014E-02 -0.3855E-03 -0.6338E-05  0.4253E-06 -0.5437E-05 -0.2609E-05 -0.3821E-07
     -4.111  0.3688E-04 -0.6068E-03 -0.8633E-03 -0.3225E-03 -0.4514E-05  0.1128E-05 -0.5014E-05 -0.3240E-05 -0.6856E-07
     -4.039  0.1884E-03  0.9302E-03  0.1618E-02  0.6080E-03  0.1223E-04  0.1745E-05  0.6967E-05  0.2529E-06 -0.7556E-07
     -3.967  0.4810E-03  0.5529E-02  0.9052E-02  0.3340E-02  0.5517E-04  0.1748E-05  0.4382E-04  0.1365E-04  0.2335E-07
     -3.895  0.9008E-03  0.1427E-01  0.2282E-01  0.8376E-02  0.1250E-03  0.7336E-06  0.1141E-03  0.4212E-04  0.8953E-07
     -3.823  0.1354E-02  0.2598E-01  0.3952E-01  0.1460E-01  0.2008E-03 -0.1101E-05  0.2055E-03  0.8443E-04 -0.7864E-06
     -3.752  0.1685E-02  0.3688E-01  0.5067E-01  0.1901E-01  0.2453E-03 -0.1325E-05  0.2807E-03  0.1301E-03 -0.4108E-05
     -3.680  0.1749E-02  0.4323E-01  0.4920E-01  0.1878E-01  0.2343E-03  0.7632E-05  0.3015E-03  0.1666E-03 -0.9260E-05
     -3.608  0.1490E-02  0.4446E-01  0.3685E-01  0.1432E-01  0.1829E-03  0.3939E-04  0.2608E-03  0.1924E-03 -0.7430E-05
     -3.536  0.1023E-02  0.4274E-01  0.2389E-01  0.1087E-01  0.1334E-03  0.1091E-03  0.1877E-03  0.2255E-03  0.2417E-04
     -3.464  0.6896E-03  0.4061E-01  0.2283E-01  0.1667E-01  0.1224E-03  0.2273E-03  0.1325E-03  0.3003E-03  0.1155E-03
     -3.393  0.1045E-02  0.4054E-01  0.4100E-01  0.3635E-01  0.1613E-03  0.3974E-03  0.1410E-03  0.4439E-03  0.2733E-03
     -3.321  0.2605E-02  0.4499E-01  0.7310E-01  0.6397E-01  0.2356E-03  0.6056E-03  0.2202E-03  0.6327E-03  0.4498E-03
     -3.249  0.5312E-02  0.5365E-01  0.1004E+00  0.8531E-01  0.3132E-03  0.7975E-03  0.3238E-03  0.7834E-03  0.5631E-03
     -3.177  0.8221E-02  0.6161E-01  0.1048E+00  0.8990E-01  0.3698E-03  0.8866E-03  0.3952E-03  0.8274E-03  0.5706E-03
     -3.106  0.1019E-01  0.6464E-01  0.8584E-01  0.7958E-01  0.4151E-03  0.8279E-03  0.4424E-03  0.7901E-03  0.5063E-03
     -3.034  0.1099E-01  0.6513E-01  0.6104E-01  0.6543E-01  0.4726E-03  0.6880E-03  0.5454E-03  0.7532E-03  0.4297E-03
     -2.962  0.1125E-01  0.6930E-01  0.4678E-01  0.5677E-01  0.5303E-03  0.6131E-03  0.7442E-03  0.7551E-03  0.3567E-03
     -2.890  0.1158E-01  0.8037E-01  0.4462E-01  0.5449E-01  0.5485E-03  0.7090E-03  0.9387E-03  0.7860E-03  0.2744E-03
     -2.818  0.1232E-01  0.9527E-01  0.4769E-01  0.5606E-01  0.5399E-03  0.9404E-03  0.9773E-03  0.8459E-03  0.2029E-03
     -2.747  0.1342E-01  0.1064E+00  0.5275E-01  0.6264E-01  0.5916E-03  0.1142E-02  0.8398E-03  0.9263E-03  0.1940E-03