   30   30   20    1
  0.6786351E+02  0.7500899E-09  0.3163512E-08  0.1732258E-08  0.5000000E-15
  1.000000000000000E-004
  CAR 
 Tetradymite Slab                        
    168     22    128
 
  0.0000000E+00  0.0000000E+00  0.0000000E+00  0.2380952E-01
    1      -11.945081   1.000000
    2      -11.894732   1.000000
    3      -11.774446   1.000000
    4      -11.275087   1.000000
    5      -11.148942   1.000000
    6      -11.073907   1.000000
    7      -10.645812   1.000000
    8      -10.524424   1.000000
    9      -10.459860   1.000000
   10      -10.308933   1.000000
   11      -10.207313   1.000000
   12      -10.161955   1.000000
   13      -10.023342   1.000000
   14       -9.977020   1.000000
   15       -9.930080   1.000000
   16       -9.883902   1.000000
   17       -9.877352   1.000000
   18       -9.750078   1.000000
   19       -8.790666   1.000000
   20       -8.746088   1.000000
   21       -8.711890   1.000000
   22       -8.448495   1.000000
   23       -8.416572   1.000000
   24       -8.359604   1.000000
   25       -7.599653   1.000000
   26       -7.570576   1.000000
   27       -7.413661   1.000000
   28       -6.778866   1.000000
   29       -6.644743   1.000000
   30       -6.554216   1.000000
   31       -4.103625   1.000000
   32       -3.938815   1.000000
   33       -3.806523   1.000000
   34       -3.327030   1.000000
   35       -3.260524   1.000000
   36       -3.198859   1.000000
   37       -3.162356   1.000000
   38       -3.119884   1.000000
   39       -2.996304   1.000000
   40       -2.939722   1.000000
   41       -2.741757   1.000000
   42       -2.692312   1.000000
   43       -2.657626   1.000000
   44       -2.634492   1.000000
   45       -2.606678   1.000000
   46       -2.590370   1.000000
   47       -2.506259   1.000000
   48       -2.449690   1.000000
   49       -2.191018   1.000000
   50       -2.187436   1.000000
   51       -2.177781   1.000000
   52       -2.108900   1.000000
   53       -2.093785   1.000000
   54       -2.078807   1.000000
   55       -2.035609   1.000000
   56       -1.929403   1.000000
   57       -1.897293   1.000000
   58       -1.724570   1.000000
   59       -1.628888   1.000000
   60       -1.478127   1.000000
   61       -1.456001   1.000000
   62       -1.340903   1.000000
   63       -1.255874   1.000000
   64       -1.189623   1.000000
   65       -0.995214   1.000000
   66       -0.904308   1.000000
   67       -0.847715   1.000000
   68       -0.759162   1.000000
   69       -0.727950   1.000000
   70       -0.706018   1.000000
   71       -0.658143   1.000000
   72       -0.561132   1.000000
   73       -0.302420   1.000044
   74       -0.243969   1.000223
   75       -0.221499   1.000396
   76       -0.151086   1.001988
   77       -0.094941   1.005828
   78       -0.058809   1.010465
   79        0.004453   1.023195
   80        0.021584   1.027133
   81        0.077610   1.035451
   82        0.165006   0.988614
   83        0.199277   0.930109
   84        0.255634   0.771037
   85        1.239163  -0.000000
   86        1.417072  -0.000000
   87        1.582943  -0.000000
   88        1.638801  -0.000000
   89        1.731066  -0.000000
   90        1.762938  -0.000000
   91        1.802085  -0.000000
   92        1.833975  -0.000000
   93        1.943538  -0.000000
   94        2.047432  -0.000000
   95        2.134377  -0.000000
   96        2.216955  -0.000000
   97        2.346449  -0.000000
   98        2.366382  -0.000000
   99        2.405026  -0.000000
  100        2.433525  -0.000000
  101        2.473469  -0.000000
  102        2.508710  -0.000000
  103        2.600299  -0.000000
  104        2.616785  -0.000000
  105        2.641043  -0.000000
  106        2.705004  -0.000000
  107        2.785148  -0.000000
  108        2.846277  -0.000000
  109        2.871332  -0.000000
  110        2.922425  -0.000000
  111        3.088648  -0.000000
  112        3.146116  -0.000000
  113        3.178350  -0.000000
  114        3.252083  -0.000000
  115        3.306200  -0.000000
  116        3.360637  -0.000000
  117        3.414163  -0.000000
  118        4.105796  -0.000000
  119        4.280014  -0.000000
  120        4.560528  -0.000000
  121        4.595169  -0.000000
  122        4.635647  -0.000000
  123        4.771981  -0.000000
  124        5.229112  -0.000000
  125        5.273901  -0.000000
  126        5.456993  -0.000000
  127        5.493771  -0.000000
  128        5.584208  -0.000000
 
  0.1428571E+00  0.1098458E-30  0.0000000E+00  0.4761905E-01
    1      -11.903539   1.000000
    2      -11.854458   1.000000
    3      -11.735786   1.000000
    4      -11.235926   1.000000
    5      -11.112365   1.000000
    6      -11.042007   1.000000
    7      -10.755621   1.000000
    8      -10.661611   1.000000
    9      -10.571545   1.000000
   10      -10.296561   1.000000
   11      -10.211714   1.000000
   12      -10.155854   1.000000
   13      -10.102045   1.000000
   14      -10.027598   1.000000
   15       -9.990078   1.000000
   16       -9.925721   1.000000
   17       -9.900563   1.000000
   18       -9.810544   1.000000
   19       -8.651432   1.000000
   20       -8.616622   1.000000
   21       -8.595522   1.000000
   22       -8.323019   1.000000
   23       -8.300270   1.000000
   24       -8.241082   1.000000
   25       -7.636590   1.000000
   26       -7.580186   1.000000
   27       -7.456153   1.000000
   28       -6.834607   1.000000
   29       -6.722092   1.000000
   30       -6.630501   1.000000
   31       -4.031435   1.000000
   32       -3.892658   1.000000
   33       -3.742538   1.000000
   34       -3.396146   1.000000
   35       -3.332418   1.000000
   36       -3.240652   1.000000
   37       -3.095269   1.000000
   38       -3.023087   1.000000
   39       -2.985249   1.000000
   40       -2.955776   1.000000
   41       -2.918159   1.000000
   42       -2.887438   1.000000
   43       -2.766206   1.000000
   44       -2.614236   1.000000
   45       -2.520582   1.000000
   46       -2.456713   1.000000
   47       -2.408436   1.000000
   48       -2.365710   1.000000
   49       -2.277970   1.000000
   50       -2.201455   1.000000
   51       -2.174327   1.000000
   52       -2.133939   1.000000
   53       -2.051572   1.000000
   54       -1.972751   1.000000
   55       -1.933942   1.000000
   56       -1.921812   1.000000
   57       -1.848633   1.000000
   58       -1.682214   1.000000
   59       -1.662486   1.000000
   60       -1.518632   1.000000
   61       -1.451356   1.000000
   62       -1.417866   1.000000
   63       -1.214598   1.000000
   64       -1.156316   1.000000
   65       -1.055690   1.000000
   66       -1.012249   1.000000
   67       -0.912776   1.000000
   68       -0.816861   1.000000
   69       -0.772192   1.000000
   70       -0.701817   1.000000
   71       -0.615736   1.000000
   72       -0.527569   1.000000
   73       -0.302594   1.000044
   74       -0.270430   1.000109
   75       -0.219951   1.000411
   76       -0.179718   1.001068
   77       -0.133699   1.002832
   78       -0.061844   1.009997
   79       -0.040711   1.013562
   80       -0.002888   1.021505
   81        0.042992   1.031606
   82        0.146015   1.009519
   83        0.193979   0.941026
   84        0.238943   0.826027
   85        1.231433  -0.000000
   86        1.440831  -0.000000
   87        1.550525  -0.000000
   88        1.663758  -0.000000
   89        1.717156  -0.000000
   90        1.783287  -0.000000
   91        1.839118  -0.000000
   92        1.877780  -0.000000
   93        2.019231  -0.000000
   94        2.052661  -0.000000
   95        2.171197  -0.000000
   96        2.205280  -0.000000
   97        2.263377  -0.000000
   98        2.322509  -0.000000
   99        2.361747  -0.000000
  100        2.384311  -0.000000
  101        2.457425  -0.000000
  102        2.480837  -0.000000
  103        2.610318  -0.000000
  104        2.716084  -0.000000
  105        2.749598  -0.000000
  106        2.813483  -0.000000
  107        2.850371  -0.000000
  108        2.922949  -0.000000
  109        3.022933  -0.000000
  110        3.052285  -0.000000
  111        3.103303  -0.000000
  112        3.143505  -0.000000
  113        3.201149  -0.000000
  114        3.261721  -0.000000
  115        3.347640  -0.000000
  116        3.365625  -0.000000
  117        3.496905  -0.000000
  118        4.146859  -0.000000
  119        4.385882  -0.000000
  120        4.454274  -0.000000
  121        4.545729  -0.000000
  122        4.628411  -0.000000
  123        4.704901  -0.000000
  124        4.987227  -0.000000
  125        5.055579  -0.000000
  126        5.148270  -0.000000
  127        5.209635  -0.000000
  128        5.261942  -0.000000
 
  0.2857143E+00 -0.2439997E-30  0.0000000E+00  0.4761905E-01
    1      -11.782167   1.000000
    2      -11.736425   1.000000
    3      -11.624448   1.000000
    4      -11.126373   1.000000
    5      -11.042261   1.000000
    6      -10.998533   1.000000
    7      -10.984457   1.000000
    8      -10.905564   1.000000
    9      -10.782820   1.000000
   10      -10.379555   1.000000
   11      -10.308513   1.000000
   12      -10.241253   1.000000
   13      -10.207584   1.000000
   14      -10.126063   1.000000
   15      -10.076387   1.000000
   16       -9.991119   1.000000
   17       -9.915898   1.000000
   18       -9.868551   1.000000
   19       -8.365322   1.000000
   20       -8.342374   1.000000
   21       -8.330333   1.000000
   22       -8.026838   1.000000
   23       -8.004244   1.000000
   24       -7.947031   1.000000
   25       -7.723046   1.000000
   26       -7.643139   1.000000
   27       -7.573696   1.000000
   28       -7.003397   1.000000
   29       -6.926973   1.000000
   30       -6.851532   1.000000
   31       -3.832654   1.000000
   32       -3.724377   1.000000
   33       -3.608351   1.000000
   34       -3.433648   1.000000
   35       -3.378400   1.000000
   36       -3.302511   1.000000
   37       -3.263064   1.000000
   38       -3.197840   1.000000
   39       -3.137910   1.000000
   40       -2.898555   1.000000
   41       -2.790419   1.000000
   42       -2.749825   1.000000
   43       -2.667683   1.000000
   44       -2.651662   1.000000
   45       -2.606415   1.000000
   46       -2.562500   1.000000
   47       -2.462013   1.000000
   48       -2.333676   1.000000
   49       -2.287063   1.000000
   50       -2.120591   1.000000
   51       -2.080816   1.000000
   52       -2.058179   1.000000
   53       -2.003225   1.000000
   54       -1.991035   1.000000
   55       -1.924810   1.000000
   56       -1.863177   1.000000
   57       -1.808084   1.000000
   58       -1.748700   1.000000
   59       -1.694765   1.000000
   60       -1.657465   1.000000
   61       -1.450831   1.000000
   62       -1.355059   1.000000
   63       -1.245196   1.000000
   64       -1.160357   1.000000
   65       -1.093065   1.000000
   66       -0.989953   1.000000
   67       -0.905819   1.000000
   68       -0.859308   1.000000
   69       -0.815742   1.000000
   70       -0.715411   1.000000
   71       -0.670767   1.000000
   72       -0.575999   1.000000
   73       -0.381268   1.000004
   74       -0.291045   1.000061
   75       -0.225321   1.000360
   76       -0.175841   1.001165
   77       -0.133688   1.002833
   78       -0.093946   1.005930
   79       -0.070743   1.008710
   80       -0.038175   1.014036
   81        0.020505   1.026889
   82        0.071596   1.035260
   83        0.083044   1.035391
   84        0.151737   1.004008
   85        1.209722  -0.000000
   86        1.477511  -0.000000
   87        1.494207  -0.000000
   88        1.672142  -0.000000
   89        1.712121  -0.000000
   90        1.794074  -0.000000
   91        1.834183  -0.000000
   92        1.908857  -0.000000
   93        1.974982  -0.000000
   94        2.007744  -0.000000
   95        2.096374  -0.000000
   96        2.153659  -0.000000
   97        2.206191  -0.000000
   98        2.254235  -0.000000
   99        2.304788  -0.000000
  100        2.395276  -0.000000
  101        2.449697  -0.000000
  102        2.539241  -0.000000
  103        2.582249  -0.000000
  104        2.606472  -0.000000
  105        2.859485  -0.000000
  106        2.988932  -0.000000
  107        3.032710  -0.000000
  108        3.080769  -0.000000
  109        3.108794  -0.000000
  110        3.169816  -0.000000
  111        3.215671  -0.000000
  112        3.258416  -0.000000
  113        3.338934  -0.000000
  114        3.377235  -0.000000
  115        3.443108  -0.000000
  116        3.480264  -0.000000
  117        3.634248  -0.000000
  118        3.920521  -0.000000
  119        4.252939  -0.000000
  120        4.394719  -0.000000
  121        4.578903  -0.000000
  122        4.615712  -0.000000
  123        4.712428  -0.000000
  124        4.881461  -0.000000
  125        4.939868  -0.000000
  126        4.960598  -0.000000
  127        4.994391  -0.000000
  128        5.231744  -0.000000
 
  0.4285714E+00 -0.1150263E-30  0.0000000E+00  0.4761905E-01
    1      -11.599132   1.000000
    2      -11.552064   1.000000
    3      -11.466795   1.000000
    4      -11.287640   1.000000
    5      -11.265689   1.000000
    6      -11.124037   1.000000
    7      -10.926837   1.000000
    8      -10.801141   1.000000
    9      -10.745927   1.000000
   10      -10.653993   1.000000
   11      -10.549775   1.000000
   12      -10.436118   1.000000
   13      -10.163662   1.000000
   14      -10.098900   1.000000
   15      -10.064749   1.000000
   16      -10.026232   1.000000
   17       -9.957003   1.000000
   18       -9.920927   1.000000
   19       -8.117182   1.000000
   20       -8.061679   1.000000
   21       -8.035552   1.000000
   22       -7.867731   1.000000
   23       -7.804672   1.000000
   24       -7.773620   1.000000
   25       -7.637926   1.000000
   26       -7.606838   1.000000
   27       -7.571334   1.000000
   28       -7.263991   1.000000
   29       -7.225000   1.000000
   30       -7.180115   1.000000
   31       -3.572829   1.000000
   32       -3.520432   1.000000
   33       -3.455706   1.000000
   34       -3.439764   1.000000
   35       -3.415161   1.000000
   36       -3.354952   1.000000
   37       -3.323466   1.000000
   38       -3.267994   1.000000
   39       -3.173871   1.000000
   40       -3.022732   1.000000
   41       -2.939296   1.000000
   42       -2.883437   1.000000
   43       -2.637783   1.000000
   44       -2.567221   1.000000
   45       -2.495680   1.000000
   46       -2.439305   1.000000
   47       -2.360515   1.000000
   48       -2.309508   1.000000
   49       -2.256675   1.000000
   50       -2.210151   1.000000
   51       -2.156870   1.000000
   52       -2.137482   1.000000
   53       -2.053621   1.000000
   54       -2.013151   1.000000
   55       -1.960777   1.000000
   56       -1.933696   1.000000
   57       -1.885475   1.000000
   58       -1.834322   1.000000
   59       -1.800447   1.000000
   60       -1.711828   1.000000
   61       -1.331843   1.000000
   62       -1.254703   1.000000
   63       -1.222409   1.000000
   64       -1.127656   1.000000
   65       -1.079245   1.000000
   66       -0.992820   1.000000
   67       -0.842899   1.000000
   68       -0.741322   1.000000
   69       -0.701015   1.000000
   70       -0.680883   1.000000
   71       -0.610526   1.000000
   72       -0.581681   1.000000
   73       -0.486813   1.000000
   74       -0.414884   1.000001
   75       -0.382162   1.000004
   76       -0.285821   1.000071
   77       -0.255405   1.000165
   78       -0.227023   1.000345
   79       -0.132415   1.002905
   80       -0.070366   1.008762
   81        0.016038   1.025871
   82        0.047651   1.032436
   83        0.096643   1.034101
   84        0.141656   1.013290
   85        1.198789  -0.000000
   86        1.405385  -0.000000
   87        1.561853  -0.000000
   88        1.596774  -0.000000
   89        1.688725  -0.000000
   90        1.744158  -0.000000
   91        1.796743  -0.000000
   92        1.845774  -0.000000
   93        1.878922  -0.000000
   94        1.889107  -0.000000
   95        1.949472  -0.000000
   96        2.041257  -0.000000
   97        2.073302  -0.000000
   98        2.243951  -0.000000
   99        2.311978  -0.000000
  100        2.453953  -0.000000
  101        2.565051  -0.000000
  102        2.615067  -0.000000
  103        2.701935  -0.000000
  104        2.746485  -0.000000
  105        2.826660  -0.000000
  106        2.865425  -0.000000
  107        2.973473  -0.000000
  108        3.037403  -0.000000
  109        3.234099  -0.000000
  110        3.316316  -0.000000
  111        3.414203  -0.000000
  112        3.442835  -0.000000
  113        3.475445  -0.000000
  114        3.506891  -0.000000
  115        3.600241  -0.000000
  116        3.637644  -0.000000
  117        3.655878  -0.000000
  118        3.772067  -0.000000
  119        3.928419  -0.000000
  120        4.078996  -0.000000
  121        4.702429  -0.000000
  122        4.830359  -0.000000
  123        4.927629  -0.000000
  124        4.984134  -0.000000
  125        5.033872  -0.000000
  126        5.107383  -0.000000
  127        5.151979  -0.000000
  128        5.221720  -0.000000
 
  0.0000000E+00  0.5000000E+00  0.0000000E+00  0.2380952E-01
    1      -11.944940   1.000000
    2      -11.895045   1.000000
    3      -11.774168   1.000000
    4      -11.278028   1.000000
    5      -11.138210   1.000000
    6      -11.082309   1.000000
    7      -10.645809   1.000000
    8      -10.524228   1.000000
    9      -10.459833   1.000000
   10      -10.298784   1.000000
   11      -10.228336   1.000000
   12      -10.150824   1.000000
   13      -10.023351   1.000000
   14       -9.977058   1.000000
   15       -9.930003   1.000000
   16       -9.884226   1.000000
   17       -9.876998   1.000000
   18       -9.750077   1.000000
   19       -8.790668   1.000000
   20       -8.746081   1.000000
   21       -8.711894   1.000000
   22       -8.448491   1.000000
   23       -8.416568   1.000000
   24       -8.359601   1.000000
   25       -7.629703   1.000000
   26       -7.513043   1.000000
   27       -7.443740   1.000000
   28       -6.764047   1.000000
   29       -6.663848   1.000000
   30       -6.547354   1.000000
   31       -4.101292   1.000000
   32       -3.948777   1.000000
   33       -3.796011   1.000000
   34       -3.327101   1.000000
   35       -3.261210   1.000000
   36       -3.201714   1.000000
   37       -3.156762   1.000000
   38       -3.129091   1.000000
   39       -2.998027   1.000000
   40       -2.953036   1.000000
   41       -2.714950   1.000000
   42       -2.692898   1.000000
   43       -2.655993   1.000000
   44       -2.608963   1.000000
   45       -2.600766   1.000000
   46       -2.580012   1.000000
   47       -2.530244   1.000000
   48       -2.480489   1.000000
   49       -2.196398   1.000000
   50       -2.186191   1.000000
   51       -2.173769   1.000000
   52       -2.131585   1.000000
   53       -2.102404   1.000000
   54       -2.050154   1.000000
   55       -2.012384   1.000000
   56       -1.950636   1.000000
   57       -1.893493   1.000000
   58       -1.724195   1.000000
   59       -1.632152   1.000000
   60       -1.493414   1.000000
   61       -1.426608   1.000000
   62       -1.335343   1.000000
   63       -1.298443   1.000000
   64       -1.148382   1.000000
   65       -1.012740   1.000000
   66       -0.924629   1.000000
   67       -0.809506   1.000000
   68       -0.774393   1.000000
   69       -0.741699   1.000000
   70       -0.665671   1.000000
   71       -0.638365   1.000000
   72       -0.578697   1.000000
   73       -0.353704   1.000009
   74       -0.277580   1.000090
   75       -0.188501   1.000874
   76       -0.168495   1.001370
   77       -0.119938   1.003698
   78       -0.022219   1.017235
   79        0.002179   1.022669
   80        0.076020   1.035426
   81        0.097979   1.033875
   82        0.140737   1.014038
   83        0.195690   0.937577
   84        0.241376   0.818396
   85        1.250680  -0.000000
   86        1.413165  -0.000000
   87        1.578070  -0.000000
   88        1.653721  -0.000000
   89        1.728338  -0.000000
   90        1.758212  -0.000000
   91        1.770637  -0.000000
   92        1.837366  -0.000000
   93        1.970196  -0.000000
   94        2.050824  -0.000000
   95        2.130030  -0.000000
   96        2.209269  -0.000000
   97        2.319776  -0.000000
   98        2.340616  -0.000000
   99        2.377356  -0.000000
  100        2.429144  -0.000000
  101        2.482400  -0.000000
  102        2.530308  -0.000000
  103        2.590190  -0.000000
  104        2.611888  -0.000000
  105        2.654359  -0.000000
  106        2.761855  -0.000000
  107        2.847822  -0.000000
  108        2.857593  -0.000000
  109        2.910391  -0.000000
  110        2.924047  -0.000000
  111        3.076383  -0.000000
  112        3.092383  -0.000000
  113        3.162166  -0.000000
  114        3.228085  -0.000000
  115        3.293748  -0.000000
  116        3.338782  -0.000000
  117        3.394941  -0.000000
  118        4.226912  -0.000000
  119        4.329239  -0.000000
  120        4.373020  -0.000000
  121        4.526606  -0.000000
  122        4.813990  -0.000000
  123        4.843618  -0.000000
  124        4.947349  -0.000000
  125        5.450749  -0.000000
  126        5.500171  -0.000000
  127        5.579824  -0.000000
  128        5.590383  -0.000000
 
  0.1428571E+00  0.5000000E+00  0.0000000E+00  0.4761905E-01
    1      -11.903418   1.000000
    2      -11.854735   1.000000
    3      -11.735560   1.000000
    4      -11.238474   1.000000
    5      -11.103035   1.000000
    6      -11.049312   1.000000
    7      -10.755607   1.000000
    8      -10.661650   1.000000
    9      -10.571575   1.000000
   10      -10.286671   1.000000
   11      -10.227388   1.000000
   12      -10.151352   1.000000
   13      -10.100175   1.000000
   14      -10.029567   1.000000
   15       -9.986588   1.000000
   16       -9.929491   1.000000
   17       -9.898332   1.000000
   18       -9.810640   1.000000
   19       -8.651388   1.000000
   20       -8.616758   1.000000
   21       -8.595430   1.000000
   22       -8.323031   1.000000
   23       -8.300255   1.000000
   24       -8.241088   1.000000
   25       -7.648597   1.000000
   26       -7.557283   1.000000
   27       -7.467772   1.000000
   28       -6.832191   1.000000
   29       -6.724226   1.000000
   30       -6.630071   1.000000
   31       -4.034090   1.000000
   32       -3.882136   1.000000
   33       -3.753319   1.000000
   34       -3.396081   1.000000
   35       -3.332842   1.000000
   36       -3.239680   1.000000
   37       -3.086949   1.000000
   38       -3.022842   1.000000
   39       -2.982292   1.000000
   40       -2.956693   1.000000
   41       -2.918496   1.000000
   42       -2.870347   1.000000
   43       -2.786990   1.000000
   44       -2.659412   1.000000
   45       -2.484168   1.000000
   46       -2.460142   1.000000
   47       -2.392062   1.000000
   48       -2.368676   1.000000
   49       -2.276332   1.000000
   50       -2.204482   1.000000
   51       -2.171882   1.000000
   52       -2.118335   1.000000
   53       -2.071488   1.000000
   54       -1.968172   1.000000
   55       -1.944822   1.000000
   56       -1.924589   1.000000
   57       -1.846048   1.000000
   58       -1.694835   1.000000
   59       -1.644021   1.000000
   60       -1.549441   1.000000
   61       -1.403750   1.000000
   62       -1.378184   1.000000
   63       -1.279578   1.000000
   64       -1.169883   1.000000
   65       -1.058442   1.000000
   66       -0.972262   1.000000
   67       -0.950296   1.000000
   68       -0.835268   1.000000
   69       -0.738202   1.000000
   70       -0.696374   1.000000
   71       -0.631999   1.000000
   72       -0.491600   1.000000
   73       -0.315914   1.000029
   74       -0.259987   1.000146
   75       -0.236322   1.000272
   76       -0.170977   1.001297
   77       -0.138978   1.002548
   78       -0.082636   1.007184
   79       -0.036376   1.014379
   80        0.016024   1.025868
   81        0.059458   1.034181
   82        0.123614   1.025273
   83        0.193615   0.941749
   84        0.235768   0.835777
   85        1.239741  -0.000000
   86        1.434678  -0.000000
   87        1.536146  -0.000000
   88        1.677840  -0.000000
   89        1.713497  -0.000000
   90        1.781057  -0.000000
   91        1.834099  -0.000000
   92        1.874343  -0.000000
   93        2.035966  -0.000000
   94        2.062355  -0.000000
   95        2.168000  -0.000000
   96        2.215583  -0.000000
   97        2.264124  -0.000000
   98        2.318430  -0.000000
   99        2.334076  -0.000000
  100        2.436738  -0.000000
  101        2.471678  -0.000000
  102        2.521570  -0.000000
  103        2.604706  -0.000000
  104        2.636961  -0.000000
  105        2.731966  -0.000000
  106        2.763449  -0.000000
  107        2.818526  -0.000000
  108        2.907163  -0.000000
  109        3.031168  -0.000000
  110        3.056600  -0.000000
  111        3.142315  -0.000000
  112        3.172860  -0.000000
  113        3.243416  -0.000000
  114        3.266673  -0.000000
  115        3.326591  -0.000000
  116        3.406762  -0.000000
  117        3.488374  -0.000000
  118        4.059284  -0.000000
  119        4.420918  -0.000000
  120        4.483742  -0.000000
  121        4.544014  -0.000000
  122        4.655836  -0.000000
  123        4.679000  -0.000000
  124        4.939982  -0.000000
  125        5.103127  -0.000000
  126        5.145791  -0.000000
  127        5.215726  -0.000000
  128        5.252186  -0.000000
 
  0.2857143E+00  0.5000000E+00  0.0000000E+00  0.4761905E-01
    1      -11.782091   1.000000
    2      -11.736584   1.000000
    3      -11.624322   1.000000
    4      -11.127821   1.000000
    5      -11.039807   1.000000
    6      -10.999427   1.000000
    7      -10.983271   1.000000
    8      -10.906870   1.000000
    9      -10.783159   1.000000
   10      -10.377929   1.000000
   11      -10.310728   1.000000
   12      -10.244487   1.000000
   13      -10.196942   1.000000
   14      -10.137386   1.000000
   15      -10.069546   1.000000
   16       -9.996616   1.000000
   17       -9.909012   1.000000
   18       -9.871980   1.000000
   19       -8.363313   1.000000
   20       -8.347239   1.000000
   21       -8.327452   1.000000
   22       -8.027131   1.000000
   23       -8.003932   1.000000
   24       -7.947099   1.000000
   25       -7.712225   1.000000
   26       -7.665987   1.000000
   27       -7.560392   1.000000
   28       -7.013080   1.000000
   29       -6.912136   1.000000
   30       -6.857957   1.000000
   31       -3.829888   1.000000
   32       -3.732747   1.000000
   33       -3.600647   1.000000
   34       -3.436050   1.000000
   35       -3.376798   1.000000
   36       -3.302842   1.000000
   37       -3.257949   1.000000
   38       -3.208594   1.000000
   39       -3.129772   1.000000
   40       -2.910473   1.000000
   41       -2.789243   1.000000
   42       -2.748084   1.000000
   43       -2.675944   1.000000
   44       -2.652191   1.000000
   45       -2.590932   1.000000
   46       -2.547953   1.000000
   47       -2.472021   1.000000
   48       -2.344252   1.000000
   49       -2.273390   1.000000
   50       -2.140769   1.000000
   51       -2.087391   1.000000
   52       -2.040747   1.000000
   53       -2.014603   1.000000
   54       -1.965240   1.000000
   55       -1.923574   1.000000
   56       -1.876018   1.000000
   57       -1.816375   1.000000
   58       -1.752084   1.000000
   59       -1.694084   1.000000
   60       -1.660353   1.000000
   61       -1.426459   1.000000
   62       -1.341295   1.000000
   63       -1.275078   1.000000
   64       -1.153938   1.000000
   65       -1.107654   1.000000
   66       -1.000649   1.000000
   67       -0.883930   1.000000
   68       -0.856305   1.000000
   69       -0.798437   1.000000
   70       -0.748305   1.000000
   71       -0.649680   1.000000
   72       -0.568029   1.000000
   73       -0.372265   1.000005
   74       -0.316998   1.000028
   75       -0.229833   1.000321
   76       -0.166746   1.001424
   77       -0.134012   1.002814
   78       -0.103182   1.005039
   79       -0.058259   1.010551
   80       -0.043290   1.013089
   81       -0.019527   1.017808
   82        0.034534   1.029944
   83        0.127916   1.022914
   84        0.187595   0.953250
   85        1.210615  -0.000000
   86        1.462794  -0.000000
   87        1.502871  -0.000000
   88        1.669482  -0.000000
   89        1.708169  -0.000000
   90        1.791904  -0.000000
   91        1.815067  -0.000000
   92        1.919616  -0.000000
   93        2.000282  -0.000000
   94        2.012532  -0.000000
   95        2.084112  -0.000000
   96        2.171300  -0.000000
   97        2.186927  -0.000000
   98        2.255456  -0.000000
   99        2.303008  -0.000000
  100        2.363910  -0.000000
  101        2.429586  -0.000000
  102        2.533982  -0.000000
  103        2.610435  -0.000000
  104        2.701273  -0.000000
  105        2.850854  -0.000000
  106        2.971129  -0.000000
  107        3.023746  -0.000000
  108        3.050204  -0.000000
  109        3.108251  -0.000000
  110        3.137929  -0.000000
  111        3.201313  -0.000000
  112        3.286362  -0.000000
  113        3.325094  -0.000000
  114        3.374208  -0.000000
  115        3.441569  -0.000000
  116        3.529737  -0.000000
  117        3.611124  -0.000000
  118        3.951725  -0.000000
  119        4.227343  -0.000000
  120        4.402769  -0.000000
  121        4.571247  -0.000000