Automatically generated mesh
      22
Reciprocal lattice
    0.00000000000000    0.00000000000000    0.00000000000000             1
    0.14285714285714    0.00000000000000    0.00000000000000             2
    0.28571428571429   -0.00000000000000    0.00000000000000             2
    0.42857142857143   -0.00000000000000    0.00000000000000             2
    0.00000000000000    0.50000000000000    0.00000000000000             1
    0.14285714285714    0.50000000000000    0.00000000000000             2
    0.28571428571429    0.50000000000000    0.00000000000000             2
    0.42857142857143    0.50000000000000    0.00000000000000             2
   -0.00000000000000   -0.00000000000000    0.33333333333333             2
    0.14285714285714   -0.00000000000000    0.33333333333333             2
    0.28571428571429   -0.00000000000000    0.33333333333333             2
    0.42857142857143   -0.00000000000000    0.33333333333333             2
   -0.42857142857143   -0.00000000000000    0.33333333333333             2
   -0.28571428571429   -0.00000000000000    0.33333333333333             2
   -0.14285714285714   -0.00000000000000    0.33333333333333             2
   -0.00000000000000    0.50000000000000    0.33333333333333             2
    0.14285714285714    0.50000000000000    0.33333333333333             2
    0.28571428571429    0.50000000000000    0.33333333333333             2
    0.42857142857143    0.50000000000000    0.33333333333333             2
   -0.42857142857143    0.50000000000000    0.33333333333333             2
   -0.28571428571429    0.50000000000000    0.33333333333333             2
   -0.14285714285714    0.50000000000000    0.33333333333333             2
