       N       E                     dE             d eps       ncg     rms          rms(c)
DAV:   1     0.556751539296E+03    0.55675E+03   -0.43042E+04  5632   0.625E+02
DAV:   2    -0.821372940198E+02   -0.63889E+03   -0.63836E+03 11264   0.103E+02
DAV:   3    -0.102192897065E+03   -0.20056E+02   -0.20056E+02  6784   0.281E+01
DAV:   4    -0.102431586785E+03   -0.23869E+00   -0.23869E+00 11136   0.366E+00
DAV:   5    -0.102431700738E+03   -0.11395E-03   -0.11395E-03  7808   0.827E-02    0.767E+00
RMM:   6    -0.992415001726E+02    0.31902E+01   -0.45467E+00  5632   0.260E+00    0.346E+00
RMM:   7    -0.990595652421E+02    0.18193E+00   -0.20131E-01  5632   0.757E-01    0.210E+00
RMM:   8    -0.989545739738E+02    0.10499E+00   -0.32514E-01  5632   0.945E-01    0.427E-01
RMM:   9    -0.989376284784E+02    0.16945E-01   -0.20359E-02  5634   0.258E-01    0.291E-01
RMM:  10    -0.989436013671E+02   -0.59729E-02   -0.74868E-03  5650   0.129E-01    0.238E-01
RMM:  11    -0.989408395026E+02    0.27619E-02   -0.26894E-03  5632   0.794E-02    0.128E-01
RMM:  12    -0.989422336955E+02   -0.13942E-02   -0.32403E-03  5632   0.100E-01    0.711E-02
RMM:  13    -0.989423156979E+02   -0.82002E-04   -0.12604E-03  5632   0.591E-02    0.360E-02
RMM:  14    -0.989423404885E+02   -0.24791E-04   -0.45432E-04  5632   0.420E-02    0.177E-02
RMM:  15    -0.989423168818E+02    0.23607E-04   -0.10483E-04  5632   0.201E-02    0.108E-02
RMM:  16    -0.989423092735E+02    0.76082E-05   -0.10259E-05  5020   0.511E-03    0.632E-03
RMM:  17    -0.989423154399E+02   -0.61663E-05   -0.96008E-06  5216   0.688E-03    0.203E-03
RMM:  18    -0.989423159172E+02   -0.47730E-06   -0.12290E-06  3821   0.242E-03
   1 F= -.98942316E+02 E0= -.98980860E+02  d E =-.989423E+02
       N       E                     dE             d eps       ncg     rms          rms(c)
DAV:   1    -0.101544428099E+03   -0.26021E+01   -0.66273E+01  5632   0.131E+01    0.105E+00
RMM:   2    -0.101677194065E+03   -0.13277E+00   -0.18118E+00  5632   0.272E+00    0.508E-01
RMM:   3    -0.101671847378E+03    0.53467E-02   -0.56232E-02  5634   0.554E-01    0.290E-01
RMM:   4    -0.101671147521E+03    0.69986E-03   -0.10064E-02  5733   0.211E-01    0.157E-01
RMM:   5    -0.101670702036E+03    0.44548E-03   -0.24991E-03  5636   0.932E-02    0.517E-02
RMM:   6    -0.101670786484E+03   -0.84448E-04   -0.23745E-04  5961   0.322E-02    0.317E-02
RMM:   7    -0.101670787505E+03   -0.10205E-05   -0.79402E-05  5668   0.154E-02    0.160E-02
RMM:   8    -0.101670784491E+03    0.30138E-05   -0.28333E-05  5632   0.935E-03    0.729E-03
RMM:   9    -0.101670779591E+03    0.48997E-05   -0.10119E-05  5359   0.545E-03    0.390E-03
RMM:  10    -0.101670775126E+03    0.44649E-05   -0.61431E-06  4954   0.409E-03    0.173E-03
RMM:  11    -0.101670774057E+03    0.10688E-05   -0.96312E-07  3794   0.178E-03    0.846E-04
RMM:  12    -0.101670773801E+03    0.25610E-06   -0.28022E-07  3466   0.944E-04
   2 F= -.10167077E+03 E0= -.10169675E+03  d E =-.272846E+01
       N       E                     dE             d eps       ncg     rms          rms(c)
DAV:   1    -0.103231597364E+03   -0.15608E+01   -0.11297E+02  5632   0.175E+01    0.142E+00
RMM:   2    -0.103457688262E+03   -0.22609E+00   -0.33999E+00  5632   0.375E+00    0.685E-01
RMM:   3    -0.103446774501E+03    0.10914E-01   -0.11266E-01  5650   0.783E-01    0.395E-01
RMM:   4    -0.103445191824E+03    0.15827E-02   -0.27034E-02  5676   0.335E-01    0.105E-01
RMM:   5    -0.103445434947E+03   -0.24312E-03   -0.21770E-03  6028   0.998E-02    0.618E-02
RMM:   6    -0.103445475314E+03   -0.40367E-04   -0.33846E-04  5680   0.357E-02    0.294E-02
RMM:   7    -0.103445483585E+03   -0.82709E-05   -0.14077E-04  5637   0.217E-02    0.127E-02
RMM:   8    -0.103445468074E+03    0.15511E-04   -0.29775E-05  5645   0.934E-03    0.914E-03
RMM:   9    -0.103445453714E+03    0.14360E-04   -0.12159E-05  5311   0.572E-03    0.536E-03
RMM:  10    -0.103445441628E+03    0.12085E-04   -0.13455E-05  5204   0.599E-03    0.223E-03
RMM:  11    -0.103445440669E+03    0.95924E-06   -0.11501E-06  3839   0.192E-03
   3 F= -.10344544E+03 E0= -.10347228E+03  d E =-.450312E+01
       N       E                     dE             d eps       ncg     rms          rms(c)
DAV:   1    -0.103467901059E+03   -0.22459E-01   -0.32240E+00 10496   0.302E+00    0.242E-01
RMM:   2    -0.103471568810E+03   -0.36678E-02   -0.74106E-02  5632   0.574E-01    0.121E-01
RMM:   3    -0.103471276357E+03    0.29245E-03   -0.28502E-03  5668   0.123E-01    0.688E-02
RMM:   4    -0.103471322303E+03   -0.45946E-04   -0.62221E-04  5728   0.499E-02    0.366E-02
RMM:   5    -0.103471277482E+03    0.44821E-04   -0.12319E-04  5659   0.202E-02    0.127E-02
RMM:   6    -0.103471284134E+03   -0.66520E-05   -0.13719E-05  5798   0.775E-03    0.695E-03
RMM:   7    -0.103471286538E+03   -0.24044E-05   -0.55566E-06  5062   0.432E-03    0.324E-03
RMM:   8    -0.103471286807E+03   -0.26835E-06   -0.15472E-06  3838   0.243E-03
   4 F= -.10347129E+03 E0= -.10349809E+03  d E =-.452897E+01
       N       E                     dE             d eps       ncg     rms          rms(c)
DAV:   1    -0.103473352463E+03   -0.20659E-02   -0.16266E-01 10240   0.683E-01    0.549E-02
RMM:   2    -0.103473502851E+03   -0.15039E-03   -0.37904E-03  5632   0.130E-01    0.273E-02
RMM:   3    -0.103473467657E+03    0.35194E-04   -0.14668E-04  5664   0.277E-02    0.156E-02
RMM:   4    -0.103473454882E+03    0.12775E-04   -0.31658E-05  5733   0.113E-02    0.831E-03
RMM:   5    -0.103473445802E+03    0.90795E-05   -0.62300E-06  5566   0.458E-03    0.281E-03
RMM:   6    -0.103473444650E+03    0.11521E-05   -0.56020E-07  3448   0.179E-03    0.149E-03
RMM:   7    -0.103473444082E+03    0.56781E-06   -0.30966E-07  3185   0.124E-03
   5 F= -.10347344E+03 E0= -.10350026E+03  d E =-.453113E+01
       N       E                     dE             d eps       ncg     rms          rms(c)
DAV:   1    -0.103840267733E+03   -0.36682E+00   -0.16951E+01  5632   0.678E+00    0.502E-01
RMM:   2    -0.103876388181E+03   -0.36120E-01   -0.46909E-01  5632   0.137E+00    0.251E-01
RMM:   3    -0.103875569977E+03    0.81820E-03   -0.15439E-02  5746   0.287E-01    0.150E-01
RMM:   4    -0.103875446323E+03    0.12365E-03   -0.21563E-03  5723   0.101E-01    0.804E-02
RMM:   5    -0.103875338987E+03    0.10734E-03   -0.57415E-04  5663   0.452E-02    0.282E-02
RMM:   6    -0.103875321718E+03    0.17269E-04   -0.63839E-05  5835   0.157E-02    0.161E-02
RMM:   7    -0.103875317795E+03    0.39233E-05   -0.26580E-05  5671   0.902E-03    0.785E-03
RMM:   8    -0.103875316561E+03    0.12344E-05   -0.68121E-06  5267   0.486E-03    0.367E-03
RMM:   9    -0.103875314942E+03    0.16190E-05   -0.25632E-06  4270   0.299E-03    0.195E-03
RMM:  10    -0.103875313943E+03    0.99872E-06   -0.13526E-06  3805   0.216E-03
   6 F= -.10387531E+03 E0= -.10390319E+03  d E =-.401870E+00
       N       E                     dE             d eps       ncg     rms          rms(c)
DAV:   1    -0.103973385688E+03   -0.98071E-01   -0.15152E+01  5632   0.643E+00    0.473E-01
RMM:   2    -0.104006672829E+03   -0.33287E-01   -0.42617E-01  5632   0.131E+00    0.239E-01
RMM:   3    -0.104005920339E+03    0.75249E-03   -0.14269E-02  5745   0.275E-01    0.141E-01
RMM:   4    -0.104005737741E+03    0.18260E-03   -0.19409E-03  5744   0.957E-02    0.773E-02
RMM:   5    -0.104005655072E+03    0.82670E-04   -0.53697E-04  5644   0.442E-02    0.214E-02
RMM:   6    -0.104005655284E+03   -0.21272E-06   -0.60056E-05  5811   0.160E-02    0.102E-02
RMM:   7    -0.104005654299E+03    0.98563E-06   -0.15796E-05  5709   0.753E-03    0.478E-03
RMM:   8    -0.104005652554E+03    0.17448E-05   -0.39778E-06  4810   0.372E-03    0.252E-03
RMM:   9    -0.104005651702E+03    0.85224E-06   -0.88513E-07  3769   0.190E-03
   7 F= -.10400565E+03 E0= -.10403425E+03  d E =-.532208E+00
       N       E                     dE             d eps       ncg     rms          rms(c)
DAV:   1    -0.104097293868E+03   -0.91641E-01   -0.50287E+00  5888   0.373E+00    0.261E-01
RMM:   2    -0.104107480732E+03   -0.10187E-01   -0.12363E-01  5632   0.719E-01    0.136E-01
RMM:   3    -0.104107224079E+03    0.25665E-03   -0.43693E-03  5713   0.151E-01    0.736E-02
RMM:   4    -0.104107264356E+03   -0.40277E-04   -0.69626E-04  5735   0.560E-02    0.333E-02
RMM:   5    -0.104107208690E+03    0.55666E-04   -0.98121E-05  5909   0.195E-02    0.128E-02
RMM:   6    -0.104107208478E+03    0.21156E-06   -0.12257E-05  5641   0.723E-03    0.533E-03
RMM:   7    -0.104107208436E+03    0.42081E-07   -0.31147E-06  4395   0.364E-03
   8 F= -.10410721E+03 E0= -.10413590E+03  d E =-.101557E+00
       N       E                     dE             d eps       ncg     rms          rms(c)
DAV:   1    -0.104136934677E+03   -0.29726E-01   -0.71339E+00  5888   0.445E+00    0.312E-01
RMM:   2    -0.104151466003E+03   -0.14531E-01   -0.17681E-01  5632   0.859E-01    0.163E-01
RMM:   3    -0.104151087334E+03    0.37867E-03   -0.62959E-03  5719   0.181E-01    0.881E-02
RMM:   4    -0.104151145072E+03   -0.57738E-04   -0.10100E-03  5736   0.672E-02    0.393E-02
RMM:   5    -0.104151069527E+03    0.75544E-04   -0.13715E-04  5927   0.231E-02    0.155E-02
RMM:   6    -0.104151068990E+03    0.53771E-06   -0.17918E-05  5662   0.864E-03    0.662E-03
RMM:   7    -0.104151068888E+03    0.10129E-06   -0.46886E-06  5054   0.431E-03
   9 F= -.10415107E+03 E0= -.10417969E+03  d E =-.145417E+00
       N       E                     dE             d eps       ncg     rms          rms(c)
DAV:   1    -0.104197290232E+03   -0.46221E-01   -0.33384E+00  7168   0.303E+00    0.224E-01
RMM:   2    -0.104203948931E+03   -0.66587E-02   -0.77908E-02  5632   0.573E-01    0.124E-01
RMM:   3    -0.104203895172E+03    0.53759E-04   -0.28698E-03  5718   0.121E-01    0.635E-02
RMM:   4    -0.104203938486E+03   -0.43314E-04   -0.46591E-04  5773   0.458E-02    0.231E-02
RMM:   5    -0.104203915377E+03    0.23109E-04   -0.48234E-05  6006   0.143E-02    0.963E-03
RMM:   6    -0.104203915677E+03   -0.30002E-06   -0.69400E-06  5260   0.491E-03
  10 F= -.10420392E+03 E0= -.10423254E+03  d E =-.528468E-01
       N       E                     dE             d eps       ncg     rms          rms(c)
DAV:   1    -0.104217204790E+03   -0.13289E-01   -0.11523E+01  5632   0.563E+00    0.422E-01
RMM:   2    -0.104242981646E+03   -0.25777E-01   -0.29791E-01  5632   0.111E+00    0.233E-01
RMM:   3    -0.104242800603E+03    0.18104E-03   -0.10810E-02  5708   0.234E-01    0.123E-01
RMM:   4    -0.104242917929E+03   -0.11733E-03   -0.17989E-03  5749   0.902E-02    0.403E-02
RMM:   5    -0.104242856275E+03    0.61654E-04   -0.17468E-04  6046   0.278E-02    0.185E-02
RMM:   6    -0.104242854843E+03    0.14319E-05   -0.24167E-05  5670   0.908E-03    0.101E-02
RMM:   7    -0.104242855723E+03   -0.87983E-06   -0.90477E-06  5339   0.527E-03
  11 F= -.10424286E+03 E0= -.10427138E+03  d E =-.917868E-01
       N       E                     dE             d eps       ncg     rms          rms(c)
DAV:   1    -0.104276273485E+03   -0.33419E-01   -0.16305E+00  5888   0.216E+00    0.166E-01
RMM:   2    -0.104279726591E+03   -0.34531E-02   -0.39302E-02  5632   0.407E-01    0.982E-02
RMM:   3    -0.104279761139E+03   -0.34549E-04   -0.16127E-03  5753   0.884E-02    0.494E-02
RMM:   4    -0.104279775888E+03   -0.14748E-04   -0.24230E-04  5686   0.339E-02    0.103E-02
RMM:   5    -0.104279774762E+03    0.11253E-05   -0.19569E-05  6040   0.100E-02    0.632E-03
RMM:   6    -0.104279775143E+03   -0.38049E-06   -0.35531E-06  4726   0.355E-03
  12 F= -.10427978E+03 E0= -.10430820E+03  d E =-.369194E-01
       N       E                     dE             d eps       ncg     rms          rms(c)
DAV:   1    -0.104318918309E+03   -0.39144E-01   -0.14659E+01  5632   0.647E+00    0.497E-01
RMM:   2    -0.104350886516E+03   -0.31968E-01   -0.36172E-01  5632   0.123E+00    0.294E-01
RMM:   3    -0.104351271047E+03   -0.38453E-03   -0.14628E-02  5738   0.266E-01    0.149E-01
RMM:   4    -0.104351464995E+03   -0.19395E-03   -0.22339E-03  5703   0.103E-01    0.363E-02
RMM:   5    -0.104351430482E+03    0.34513E-04   -0.19238E-04  6115   0.307E-02    0.204E-02
RMM:   6    -0.104351432041E+03   -0.15596E-05   -0.28351E-05  5616   0.969E-03    0.107E-02
RMM:   7    -0.104351432353E+03   -0.31165E-06   -0.93001E-06  5398   0.549E-03
  13 F= -.10435143E+03 E0= -.10437931E+03  d E =-.108577E+00
       N       E                     dE             d eps       ncg     rms          rms(c)
DAV:   1    -0.104191443565E+03    0.15999E+00   -0.58444E+01  5632   0.129E+01    0.990E-01
RMM:   2    -0.104321770828E+03   -0.13033E+00   -0.14658E+00  5632   0.245E+00    0.582E-01
RMM:   3    -0.104323528078E+03   -0.17573E-02   -0.57799E-02  5724   0.530E-01    0.302E-01
RMM:   4    -0.104324516076E+03   -0.98800E-03   -0.90402E-03  5713   0.205E-01    0.908E-02
RMM:   5    -0.104324182308E+03    0.33377E-03   -0.89383E-04  6066   0.638E-02    0.417E-02
RMM:   6    -0.104324184937E+03   -0.26292E-05   -0.11039E-04  5645   0.199E-02    0.213E-02
RMM:   7    -0.104324192091E+03   -0.71542E-05   -0.43636E-05  5632   0.121E-02    0.730E-03
RMM:   8    -0.104324192576E+03   -0.48496E-06   -0.57390E-06  5081   0.481E-03
  14 F= -.10432419E+03 E0= -.10434972E+03  d E =-.813369E-01
       N       E                     dE             d eps       ncg     rms          rms(c)
DAV:   1    -0.104317487517E+03    0.67046E-02   -0.22483E+01  5632   0.800E+00    0.609E-01
RMM:   2    -0.104366435553E+03   -0.48948E-01   -0.54781E-01  5632   0.151E+00    0.361E-01
RMM:   3    -0.104367114110E+03   -0.67856E-03   -0.21603E-02  5729   0.326E-01    0.187E-01
RMM:   4    -0.104367618210E+03   -0.50410E-03   -0.34165E-03  5703   0.125E-01    0.686E-02
RMM:   5    -0.104367356092E+03    0.26212E-03   -0.38820E-04  5974   0.405E-02    0.258E-02
RMM:   6    -0.104367361792E+03   -0.56996E-05   -0.51412E-05  5651   0.135E-02    0.124E-02
RMM:   7    -0.104367365964E+03   -0.41728E-05   -0.14808E-05  5595   0.715E-03    0.472E-03
RMM:   8    -0.104367366852E+03   -0.88780E-06   -0.20462E-06  3882   0.309E-03
  15 F= -.10436737E+03 E0= -.10439451E+03  d E =-.124511E+00
       N       E                     dE             d eps       ncg     rms          rms(c)
DAV:   1    -0.104406704977E+03   -0.39339E-01   -0.58033E+00  5632   0.401E+00    0.301E-01
RMM:   2    -0.104419437654E+03   -0.12733E-01   -0.14110E-01  5632   0.769E-01    0.173E-01
RMM:   3    -0.104419474731E+03   -0.37077E-04   -0.53412E-03  5719   0.163E-01    0.886E-02
RMM:   4    -0.104419542021E+03   -0.67290E-04   -0.84847E-04  5739   0.621E-02    0.254E-02
RMM:   5    -0.104419521722E+03    0.20299E-04   -0.75615E-05  6094   0.187E-02    0.124E-02
RMM:   6    -0.104419521986E+03   -0.26448E-06   -0.96653E-06  5353   0.582E-03
  16 F= -.10441952E+03 E0= -.10444636E+03  d E =-.521551E-01
       N       E                     dE             d eps       ncg     rms          rms(c)
DAV:   1    -0.104408776466E+03    0.10745E-01   -0.27884E+01  5632   0.878E+00    0.664E-01
RMM:   2    -0.104470298708E+03   -0.61522E-01   -0.68375E-01  5632   0.169E+00    0.382E-01
RMM:   3    -0.104470436750E+03   -0.13804E-03   -0.26066E-02  5718   0.358E-01    0.194E-01
RMM:   4    -0.104470685093E+03   -0.24834E-03   -0.41481E-03  5735   0.138E-01    0.463E-02
RMM:   5    -0.104470662274E+03    0.22819E-04   -0.32138E-04  6115   0.402E-02    0.256E-02
RMM:   6    -0.104470670126E+03   -0.78518E-05   -0.58032E-05  5635   0.140E-02    0.999E-03
RMM:   7    -0.104470672130E+03   -0.20043E-05   -0.10702E-05  5480   0.631E-03    0.409E-03
RMM:   8    -0.104470672350E+03   -0.21978E-06   -0.16186E-06  3792   0.271E-03
  17 F= -.10447067E+03 E0= -.10449640E+03  d E =-.103305E+00
       N       E                     dE             d eps       ncg     rms          rms(c)
DAV:   1    -0.104486054459E+03   -0.15382E-01   -0.11977E+00  8960   0.183E+00    0.138E-01
RMM:   2    -0.104488129099E+03   -0.20746E-02   -0.25189E-02  5632   0.335E-01    0.780E-02
RMM:   3    -0.104488118600E+03    0.10499E-04   -0.99417E-04  5767   0.721E-02    0.385E-02
RMM:   4    -0.104488132466E+03   -0.13866E-04   -0.15078E-04  5693   0.267E-02    0.105E-02
RMM:   5    -0.104488133316E+03   -0.85005E-06   -0.13610E-05  5914   0.831E-03    0.525E-03
RMM:   6    -0.104488134313E+03   -0.99653E-06   -0.27031E-06  4248   0.324E-03
  18 F= -.10448813E+03 E0= -.10451393E+03  d E =-.174620E-01
       N       E                     dE             d eps       ncg     rms          rms(c)
DAV:   1    -0.104492410902E+03   -0.42776E-02   -0.13936E+00  6400   0.198E+00    0.151E-01
RMM:   2    -0.104495345152E+03   -0.29342E-02   -0.34831E-02  5632   0.386E-01    0.852E-02
RMM:   3    -0.104495334279E+03    0.10873E-04   -0.13143E-03  5748   0.823E-02    0.447E-02
RMM:   4    -0.104495347984E+03   -0.13705E-04   -0.21077E-04  5691   0.313E-02    0.122E-02
RMM:   5    -0.104495348959E+03   -0.97461E-06   -0.19386E-05  6007   0.984E-03    0.598E-03
RMM:   6    -0.104495350013E+03   -0.10537E-05   -0.36272E-06  4858   0.359E-03    0.261E-03
RMM:   7    -0.104495350483E+03   -0.47027E-06   -0.65991E-07  3633   0.183E-03
  19 F= -.10449535E+03 E0= -.10452117E+03  d E =-.246781E-01
       N       E                     dE             d eps       ncg     rms          rms(c)
DAV:   1    -0.104507605683E+03   -0.12256E-01   -0.14121E+00  6144   0.197E+00    0.149E-01
RMM:   2    -0.104510520307E+03   -0.29146E-02   -0.33255E-02  5632   0.375E-01    0.825E-02
RMM:   3    -0.104510505564E+03    0.14743E-04   -0.12443E-03  5735   0.799E-02    0.409E-02
RMM:   4    -0.104510514333E+03   -0.87690E-05   -0.18929E-04  5707   0.300E-02    0.959E-03
RMM:   5    -0.104510513447E+03    0.88587E-06   -0.15583E-05  5967   0.893E-03    0.555E-03
RMM:   6    -0.104510513540E+03   -0.93357E-07   -0.26240E-06  4210   0.319E-03
  20 F= -.10451051E+03 E0= -.10453612E+03  d E =-.151631E-01
