Tetradymite Slab                        
           1
     3.750449    0.000000   -6.495969
    -0.000000   31.337301   -4.330646
     0.000000    0.000000   17.322584
   Sb   Te
  12  18
Direct configuration=     1
   0.66666700  0.06339322  0.22418168
   0.66666700  0.26994078  0.02581857
   0.00000000  0.39672622  0.05751493
   0.00000000  0.60327378  0.10915182
   0.33333300  0.73005922  0.14084818
   0.33333300  0.93660678  0.19248507
   0.66666700  0.06339322  0.47418168
   0.66666700  0.26994078  0.27581857
   0.00000000  0.39672622  0.30751493
   0.00000000  0.60327378  0.35915182
   0.33333300  0.73005922  0.39084818
   0.33333300  0.93660678  0.44248507
   0.00000000  0.21537671  0.01217755
   0.33333300  0.11795629  0.23782245
   0.00000000  0.00000000  0.20833338
   0.33333300  0.54870971  0.09551080
   0.66666700  0.45129029  0.07115595
   0.33333300  0.33333300  0.04166662
   0.66666700  0.88204371  0.17884430
   0.00000000  0.78462329  0.15448920
   0.66666700  0.66666700  0.12500012
   0.00000000  0.21537671  0.26217755
   0.33333300  0.11795629  0.48782245
   0.00000000  0.00000000  0.45833338
   0.33333300  0.54870971  0.34551080
   0.66666700  0.45129029  0.32115595
   0.33333300  0.33333300  0.29166662
   0.66666700  0.88204371  0.42884430
   0.00000000  0.78462329  0.40448920
   0.66666700  0.66666700  0.37500012
Direct configuration=     2
   0.66666700  0.06339322  0.22418168
   0.68932896  0.26911810  0.03561043
   0.01681460  0.39767202  0.06785133
   0.02303684  0.60232413  0.11881041
   0.34989902  0.73101138  0.15098593
   0.35651552  0.93567034  0.20224819
   0.64400545  0.06421575  0.46438990
   0.66666700  0.26994078  0.27581857
   0.00000000  0.39672622  0.30751493
  -0.01656613  0.60232167  0.34901410
   0.31029596  0.73100892  0.38118957
   0.31651864  0.93566107  0.43214882
   0.01270659  0.21671926  0.01794109
   0.34228251  0.11668875  0.24261780
   0.01826392 -0.00003524  0.21741659
   0.33333300  0.54870971  0.09551080
   0.67513128  0.44983008  0.07580534
   0.35132868  0.33328052  0.05065313
   0.67823606  0.88349370  0.18423115
   0.00846785  0.78316896  0.15908717
   0.68419302  0.66666971  0.13376594
  -0.00894978  0.21664435  0.25738209
   0.33333300  0.11795629  0.48782245
   0.00000000  0.00000000  0.45833338
   0.32486522  0.55016407  0.34091290
   0.65509782  0.44984018  0.31576899
   0.31506888  0.33336828  0.28258343
   0.65820291  0.88350379  0.42419495
  -0.01138056  0.78316403  0.39915851
   0.64914147  0.66666421  0.36623429
Direct configuration=     3
   0.66666700  0.06339322  0.22418168
   0.71901758  0.26804035  0.04843839
   0.03884280  0.39891109  0.08139267
   0.05321658  0.60108003  0.13146379
   0.37160157  0.73225876  0.16426704
   0.38688610  0.93444354  0.21503851
   0.61431737  0.06529332  0.45156204
   0.66666700  0.26994078  0.27581857
   0.00000000  0.39672622  0.30751493
  -0.03826882  0.60107435  0.33573304
   0.28011597  0.73225308  0.36853618
   0.29449074  0.93442212  0.41860767
   0.02935305  0.21847807  0.02549169
   0.35400693  0.11502819  0.24890003
   0.04219082 -0.00008141  0.22931618
   0.33333300  0.54870971  0.09551080
   0.68622002  0.44791711  0.08189634
   0.37490418  0.33321176  0.06242602
   0.69339227  0.88539327  0.19128828
   0.01956129  0.78126370  0.16511081
   0.70715323  0.66667327  0.14524972
  -0.02067456  0.21830503  0.25109972
   0.33333300  0.11795629  0.48782245
   0.00000000  0.00000000  0.45833338
   0.31377188  0.55206937  0.33488935
   0.63994145  0.44794044  0.30871173
   0.29114170  0.33341450  0.27068387
   0.64711441  0.88541659  0.41810401
  -0.02628981  0.78125231  0.39217496
   0.62618189  0.66666056  0.35475048
Direct configuration=     4
   0.66666700  0.06339322  0.22418168
   0.72399695  0.26785958  0.05058990
   0.04253736  0.39911890  0.08366383
   0.05827832  0.60087137  0.13358602
   0.37524152  0.73246797  0.16649454
   0.39197986  0.93423778  0.21718370
   0.60933808  0.06547405  0.44941055
   0.66666700  0.26994078  0.27581857
   0.00000000  0.39672622  0.30751493
  -0.04190879  0.60086515  0.33350555
   0.27505418  0.73246175  0.36641395
   0.29079622  0.93421433  0.41633655
   0.03214499  0.21877306  0.02675807
   0.35597335  0.11474969  0.24995369
   0.04620384 -0.00008915  0.23131198
   0.33333300  0.54870971  0.09551080
   0.68807983  0.44759627  0.08291792
   0.37885826  0.33320023  0.06440057
   0.69593426  0.88571186  0.19247190
   0.02142188  0.78094415  0.16612109
   0.71100411  0.66667386  0.14717578
  -0.02264104  0.21858356  0.25004605
   0.33333300  0.11795629  0.48782245
   0.00000000  0.00000000  0.45833338
   0.31191130  0.55238892  0.33387908
   0.63739942  0.44762182  0.30752809
   0.28712864  0.33342226  0.26868808
   0.64525464  0.88573741  0.41708243
  -0.02879039  0.78093168  0.39100368
   0.62233112  0.66665995  0.35282442
Direct configuration=     5
   0.66666700  0.06339322  0.22418168
   0.72287764  0.26790022  0.05010626
   0.04170686  0.39907219  0.08315329
   0.05714049  0.60091828  0.13310896
   0.37442330  0.73242094  0.16599382
   0.39083483  0.93428403  0.21670148
   0.61045738  0.06543342  0.44989419
   0.66666700  0.26994078  0.27581857
   0.00000000  0.39672622  0.30751493
  -0.04109056  0.60091218  0.33400627
   0.27619202  0.73241484  0.36689101
   0.29162671  0.93426104  0.41684707
   0.03151739  0.21870675  0.02647340
   0.35553132  0.11481229  0.24971683
   0.04530175 -0.00008741  0.23086335
   0.33333300  0.54870971  0.09551080
   0.68766176  0.44766839  0.08268828
   0.37796942  0.33320282  0.06395671
   0.69536285  0.88564025  0.19220583
   0.02100363  0.78101598  0.16589399
   0.71013847  0.66667373  0.14674282
  -0.02219899  0.21852095  0.25028290
   0.33333300  0.11795629  0.48782245
   0.00000000  0.00000000  0.45833338
   0.31232954  0.55231709  0.33410618
   0.63797085  0.44769344  0.30779416
   0.28803074  0.33342051  0.26913671
   0.64567270  0.88566529  0.41731207
  -0.02822829  0.78100375  0.39126697
   0.62319673  0.66666009  0.35325738
Direct configuration=     6
   0.66666700  0.06339322  0.22418168
   0.72632472  0.26850921  0.05060678
   0.03950440  0.39837726  0.08324440
   0.06265316  0.60156425  0.13365016
   0.37257980  0.73140158  0.16645284
   0.40392100  0.93554492  0.22096413
   0.60609169  0.06508350  0.44948883
   0.66666700  0.26994078  0.27581857
   0.00000000  0.39672622  0.30751493
  -0.05260042  0.60072655  0.32784323
   0.27172625  0.73146968  0.36602630
   0.29358143  0.93525568  0.41677445
   0.04636888  0.21952947  0.03216084
   0.35438497  0.11485808  0.24848826
   0.05181397 -0.00006242  0.23410034
   0.33333300  0.54870971  0.09551080
   0.69368405  0.44686277  0.08770082
   0.39818980  0.33317515  0.07406148
   0.69348564  0.88522108  0.19083389
   0.01760679  0.78146517  0.16502140
   0.71723284  0.66654269  0.15052282
  -0.02072549  0.21832245  0.25155970
   0.33333300  0.11795629  0.48782245
   0.00000000  0.00000000  0.45833338
   0.31563601  0.55195552  0.33517312
   0.64220190  0.44775023  0.30945406
   0.28160976  0.33338278  0.26596645
   0.64805703  0.88508304  0.41769868
  -0.02728890  0.78146962  0.39244035
   0.61613027  0.66663045  0.34961610
Direct configuration=     7
   0.66666700  0.06339322  0.22418168
   0.72958455  0.26908512  0.05108011
   0.03742157  0.39772009  0.08333056
   0.06786638  0.60217513  0.13416196
   0.37083644  0.73043759  0.16688692
   0.41629630  0.93673731  0.22499523
   0.60196316  0.06475259  0.44910549
   0.66666700  0.26994078  0.27581857
   0.00000000  0.39672622  0.30751493
  -0.06348505  0.60055101  0.32201498
   0.26750307  0.73057587  0.36520856
   0.29542996  0.93619628  0.41670578
   0.06041361  0.22030750  0.03753933
   0.35330088  0.11490139  0.24732642
   0.05797242 -0.00003879  0.23716149
   0.33333300  0.54870971  0.09551080
   0.69937920  0.44610091  0.09244107
   0.41731176  0.33314898  0.08361733
   0.69171040  0.88482469  0.18953648
   0.01439448  0.78188996  0.16419621
   0.72394184  0.66641876  0.15409747
  -0.01933204  0.21813473  0.25276714
   0.33333300  0.11795629  0.48782245
   0.00000000  0.00000000  0.45833338
   0.31876287  0.55161358  0.33618210
   0.64620312  0.44780394  0.31102379
   0.27553758  0.33334710  0.26296840
   0.65031184  0.88453241  0.41806428
  -0.02640054  0.78191018  0.39354999
   0.60944768  0.66660242  0.34617262
Direct configuration=     8
   0.66666700  0.06339322  0.22418168
   0.72744572  0.26899592  0.05004051
   0.03546946  0.39770583  0.08236737
   0.06550688  0.60206701  0.13256134
   0.36650186  0.73061358  0.16544361
   0.42660255  0.93746997  0.22815932
   0.60448573  0.06503327  0.45074547
   0.66666700  0.26994078  0.27581857
   0.00000000  0.39672622  0.30751493
  -0.06074509  0.60006940  0.32267932
   0.26876578  0.73069807  0.36670801
   0.29913674  0.93595947  0.41789432
   0.06526194  0.22023781  0.03902543
   0.35208334  0.11460774  0.24649062
   0.05518890  0.00010446  0.23554220
   0.33333300  0.54870971  0.09551080
   0.70018718  0.44608360  0.09398175
   0.43034002  0.33316189  0.09012737
   0.69517325  0.88499549  0.19011815
   0.01285635  0.78176794  0.16460188
   0.71860680  0.66639495  0.15126402
  -0.01797667  0.21823790  0.25315094
   0.33333300  0.11795629  0.48782245
   0.00000000  0.00000000  0.45833338
   0.31996043  0.55169579  0.33564921
   0.64626827  0.44754882  0.31151875
   0.27837978  0.33331253  0.26437987
   0.65140065  0.88435660  0.41777867
  -0.02959488  0.78176609  0.39308035
   0.61408637  0.66651154  0.34846754
Direct configuration=     9
   0.66666700  0.06339322  0.22418168
   0.72489776  0.26888967  0.04880205
   0.03314393  0.39768884  0.08121994
   0.06269604  0.60193820  0.13065454
   0.36133813  0.73082324  0.16372422
   0.43888025  0.93834277  0.23192865
   0.60749084  0.06536763  0.45269917
   0.66666700  0.26994078  0.27581857
   0.00000000  0.39672622  0.30751493
  -0.05748102  0.59949567  0.32347074
   0.27027003  0.73084364  0.36849428
   0.30355258  0.93567736  0.41931020
   0.07103771  0.22015479  0.04079581
   0.35063291  0.11425792  0.24549494
   0.05187293  0.00027511  0.23361316
   0.33333300  0.54870971  0.09551080
   0.70114973  0.44606298  0.09581715
   0.44586042  0.33317727  0.09788270
   0.69929850  0.88519895  0.19081109
   0.01102399  0.78162258  0.16508515
   0.71225125  0.66636659  0.14788858
  -0.01636203  0.21836080  0.25360816
   0.33333300  0.11795629  0.48782245
   0.00000000  0.00000000  0.45833338
   0.32138707  0.55179373  0.33501439
   0.64634588  0.44724491  0.31210839
   0.28176565  0.33327136  0.26606133
   0.65269774  0.88414716  0.41743843
  -0.03340026  0.78159443  0.39252086
   0.61961238  0.66640329  0.35120145
Direct configuration=    10
   0.66666700  0.06339322  0.22418168
   0.72679654  0.26870250  0.04932476
   0.03314395  0.39771144  0.08177119
   0.06237962  0.60227554  0.13018205
   0.35815725  0.73071410  0.16342843
   0.44227396  0.93847015  0.23258496
   0.60687421  0.06554258  0.45251498
   0.66666700  0.26994078  0.27581857
   0.00000000  0.39672622  0.30751493
  -0.05415508  0.59949600  0.32383080
   0.26795390  0.73067907  0.36866835
   0.30872315  0.93553941  0.41984676
   0.06743360  0.21967725  0.03909604
   0.34982279  0.11376189  0.24537498
   0.05353954  0.00035610  0.23384358
   0.33333300  0.54870971  0.09551080
   0.69793985  0.44649389  0.09418619
   0.44866173  0.33321757  0.09928887
   0.70469289  0.88543259  0.19193752
   0.00997600  0.78137075  0.16606387
   0.70964265  0.66631512  0.14659809
  -0.01567955  0.21859929  0.25319853
   0.33333300  0.11795629  0.48782245
   0.00000000  0.00000000  0.45833338
   0.32205454  0.55186031  0.33392424
   0.64406753  0.44683523  0.31195968
   0.28243761  0.33323470  0.26643557
   0.65374971  0.88427547  0.41688649
  -0.03813094  0.78137015  0.39165705
   0.62068539  0.66636076  0.35168216
Direct configuration=    11
   0.66666700  0.06339322  0.22418168
   0.73033095  0.26835409  0.05029774
   0.03314396  0.39775352  0.08279730
   0.06179065  0.60290347  0.12930254
   0.35223632  0.73051095  0.16287784
   0.44859106  0.93870724  0.23380664
   0.60572640  0.06586824  0.45217214
   0.66666700  0.26994078  0.27581857
   0.00000000  0.39672622  0.30751493
  -0.04796413  0.59949661  0.32450101
   0.26364262  0.73037274  0.36899238
   0.31834773  0.93528263  0.42084552
   0.06072485  0.21878836  0.03593206
   0.34831482  0.11283858  0.24515167
   0.05664181  0.00050687  0.23427248
   0.33333300  0.54870971  0.09551080
   0.69196494  0.44729598  0.09115028
   0.45387612  0.33329258  0.10190634
   0.71473409  0.88586748  0.19403427
   0.00802526  0.78090198  0.16788568
   0.70478696  0.66621931  0.14419596
  -0.01440916  0.21904322  0.25243603
   0.33333300  0.11795629  0.48782245
   0.00000000  0.00000000  0.45833338
   0.32329698  0.55198424  0.33189502
   0.63982659  0.44607264  0.31168288
   0.28368840  0.33316648  0.26713218
   0.65570786  0.88451432  0.41585911
  -0.04693670  0.78095266  0.39004915
   0.62268270  0.66628161  0.35257698
Direct configuration=    12
   0.66666700  0.06339322  0.22418168
   0.73059226  0.26840253  0.04984287
   0.03066562  0.39759604  0.08223343
   0.06171306  0.60326852  0.12875520
   0.34855162  0.73027645  0.16230693
   0.44841841  0.93872208  0.23280434
   0.60678631  0.06574569  0.45285363
   0.66666700  0.26994078  0.27581857
   0.00000000  0.39672622  0.30751493
  -0.04704712  0.59948346  0.32400129
   0.26171561  0.73005393  0.36933036
   0.32339106  0.93544530  0.42181095
   0.05995852  0.21867476  0.03544226
   0.34620850  0.11266946  0.24416944
   0.05821101  0.00054705  0.23455608
   0.33333300  0.54870971  0.09551080
   0.69044722  0.44740035  0.09054871
   0.45294373  0.33330275  0.10143200
   0.71802435  0.88597687  0.19459579
   0.00674162  0.78077790  0.16832872
   0.70310542  0.66616589  0.14358577
  -0.01285230  0.21904686  0.25297719
   0.33333300  0.11795629  0.48782245
   0.00000000  0.00000000  0.45833338
   0.32368097  0.55199926  0.33115742
   0.64071556  0.44591459  0.31255120
   0.28439800  0.33311461  0.26753938
   0.65794573  0.88443587  0.41586219
  -0.04970442  0.78085325  0.38974011
   0.62307955  0.66626637  0.35278220
Direct configuration=    13
   0.66666700  0.06339322  0.22418168
   0.73137619  0.26854784  0.04847827
   0.02323060  0.39712358  0.08054180
   0.06148030  0.60436365  0.12711317
   0.33749751  0.72957293  0.16059417
   0.44790046  0.93876659  0.22979742
   0.60996605  0.06537803  0.45489810
   0.66666700  0.26994078  0.27581857
   0.00000000  0.39672622  0.30751493
  -0.04429611  0.59944402  0.32250213
   0.25593461  0.72909750  0.37034432
   0.33852104  0.93593330  0.42470726
   0.05765955  0.21833395  0.03397283
   0.33988953  0.11216207  0.24122274
   0.06291860  0.00066761  0.23540687
   0.33333300  0.54870971  0.09551080
   0.68589405  0.44771344  0.08874400
   0.45014656  0.33333328  0.10000895
   0.72789511  0.88630504  0.19628033
   0.00289070  0.78040564  0.16965785
   0.69806079  0.66600561  0.14175518
  -0.00818171  0.21905781  0.25460064
   0.33333300  0.11795629  0.48782245
   0.00000000  0.00000000  0.45833338
   0.32483295  0.55204433  0.32894463
   0.64338250  0.44544044  0.31515614
   0.28652678  0.33295902  0.26876099
   0.66465934  0.88420053  0.41587146
  -0.05800758  0.78055501  0.38881301
   0.62427010  0.66622067  0.35339784
Direct configuration=    14
   0.66666700  0.06339322  0.22418168
   0.73294406  0.26883848  0.04574906
   0.00836056  0.39617866  0.07715856
   0.06101479  0.60655392  0.12382912
   0.31538930  0.72816588  0.15716866
   0.44686455  0.93885561  0.22378358
   0.61632553  0.06464272  0.45898704
   0.66666700  0.26994078  0.27581857
   0.00000000  0.39672622  0.30751493
  -0.03879408  0.59936515  0.31950381
   0.24437260  0.72718465  0.37237223
   0.36878102  0.93690929  0.43049989
   0.05306162  0.21765233  0.03103399
   0.32725159  0.11114730  0.23532934
   0.07233377  0.00090871  0.23710846
   0.33333300  0.54870971  0.09551080
   0.67678772  0.44833963  0.08513458
   0.44455221  0.33339432  0.09716286
   0.74763664  0.88696138  0.19964941
  -0.00481114  0.77966113  0.17231612
   0.68797152  0.66568507  0.13809401
   0.00115946  0.21907969  0.25784755
   0.33333300  0.11795629  0.48782245
   0.00000000  0.00000000  0.45833338
   0.32713690  0.55213447  0.32451905
   0.64871636  0.44449214  0.32036602
   0.29078435  0.33264783  0.27120420
   0.67808655  0.88372984  0.41588998
  -0.07461389  0.77995854  0.38695879
   0.62665119  0.66612926  0.35462913
Direct configuration=    15
   0.66666700  0.06339322  0.22418168
   0.73197609  0.26865905  0.04743402
   0.01754105  0.39676203  0.07924731
   0.06130219  0.60520169  0.12585663
   0.32903851  0.72903457  0.15928351
   0.44750410  0.93880065  0.22749641
   0.61239930  0.06509669  0.45646260
   0.66666700  0.26994078  0.27581857
   0.00000000  0.39672622  0.30751493
  -0.04219093  0.59941384  0.32135492
   0.25151077  0.72836561  0.37112024
   0.35009906  0.93630673  0.42692363
   0.05590030  0.21807315  0.03284838
   0.33505402  0.11177380  0.23896782
   0.06652102  0.00075986  0.23605793
   0.33333300  0.54870971  0.09551080
   0.68240980  0.44795303  0.08736297
   0.44800606  0.33335663  0.09891999
   0.73544858  0.88655617  0.19756940
  -0.00005616  0.78012078  0.17067496
   0.69420045  0.66588297  0.14035435
  -0.00460761  0.21906618  0.25584297
   0.33333300  0.11795629  0.48782245
   0.00000000  0.00000000  0.45833338
   0.32571448  0.55207882  0.32725132
   0.64542333  0.44507760  0.31714954
   0.28815580  0.33283995  0.26969580
   0.66979683  0.88402043  0.41587854
  -0.06436145  0.78032679  0.38810355
   0.62518115  0.66618570  0.35386895
Direct configuration=    16
   0.66666700  0.06339322  0.22418168
   0.73298390  0.26860552  0.04757725
   0.01709800  0.39669364  0.07959484
   0.06114701  0.60550945  0.12466789
   0.32222925  0.72897025  0.15821023
   0.44749798  0.93848092  0.22551026
   0.61450277  0.06510013  0.45720967
   0.66666700  0.26994078  0.27581857
   0.00000000  0.39672622  0.30751493
  -0.04252834  0.59900868  0.32005116
   0.24796135  0.72800870  0.37177219
   0.35713787  0.93656095  0.42854688
   0.05972904  0.21839201  0.03393591
   0.33211625  0.11130541  0.23776231
   0.06882217  0.00078434  0.23621697
   0.33333300  0.54870971  0.09551080
   0.68199169  0.44761343  0.08803260
   0.44447804  0.33333138  0.09714840
   0.74285599  0.88701496  0.19932722
  -0.00149435  0.77968155  0.17184911
   0.68906977  0.66582541  0.13846592
  -0.00364759  0.21935830  0.25612848
   0.33333300  0.11795629  0.48782245
   0.00000000  0.00000000  0.45833338
   0.32383520  0.55233165  0.32513378
   0.64545542  0.44442892  0.31765069
   0.28843163  0.33275297  0.26995074
   0.67396744  0.88400931  0.41540813
  -0.06998844  0.77991714  0.38701082
   0.62771887  0.66617878  0.35532985
Direct configuration=    17
   0.66666700  0.06339322  0.22418168
   0.73519601  0.26848802  0.04789163
   0.01612552  0.39654352  0.08035767
   0.06080640  0.60618498  0.12205862
   0.30728309  0.72882908  0.15585441
   0.44748455  0.93777911  0.22115070
   0.61911984  0.06510768  0.45884945
   0.66666700  0.26994078  0.27581857
   0.00000000  0.39672622  0.30751493
  -0.04326895  0.59811935  0.31718944
   0.24017046  0.72722528  0.37320322
   0.37258791  0.93711896  0.43210988
   0.06813306  0.21909191  0.03632303
   0.32566790  0.11027732  0.23511625
   0.07387315  0.00083807  0.23656605
   0.33333300  0.54870971  0.09551080
   0.68107396  0.44686801  0.08950243
   0.43673411  0.33327596  0.09325981
   0.75911508  0.88802199  0.20318560
  -0.00465113  0.77871746  0.17442636
   0.67780803  0.66569907  0.13432086
  -0.00154035  0.21999949  0.25675517
   0.33333300  0.11795629  0.48782245
   0.00000000  0.00000000  0.45833338
   0.31971021  0.55288661  0.32048584
   0.64552586  0.44300508  0.31875070
   0.28903707  0.33256203  0.27051033
   0.68312183  0.88398490  0.41437559
  -0.08233956  0.77901797  0.38461230
   0.63328913  0.66616359  0.35853648
Direct configuration=    18
   0.66666700  0.06339322  0.22418168
   0.73456120  0.26851565  0.04833935
   0.01809410  0.39642943  0.08065926
   0.06095595  0.60645596  0.12180563
   0.30624448  0.72865549  0.15604243
   0.45029650  0.93793471  0.22188350
   0.61848261  0.06540860  0.45818305
   0.66666700  0.26994078  0.27581857
   0.00000000  0.39672622  0.30751493
  -0.04548141  0.59808153  0.31674460
   0.23865321  0.72687677  0.37305267
   0.37573190  0.93727148  0.43311434
   0.06918760  0.21914600  0.03644514
   0.32573699  0.11001912  0.23518746
   0.07568428  0.00078939  0.23703956
   0.33333300  0.54870971  0.09551080
   0.68056609  0.44679719  0.08973644
   0.43764134  0.33324664  0.09374307
   0.76214669  0.88798881  0.20348407
  -0.00553453  0.77862482  0.17493186
   0.67571009  0.66560797  0.13372818
  -0.00206134  0.22014056  0.25677650
   0.33333300  0.11795629  0.48782245
   0.00000000  0.00000000  0.45833338
   0.31621342  0.55282362  0.31905120
   0.64717154  0.44275089  0.31920876
   0.28823035  0.33252926  0.27021320
   0.68282725  0.88432343  0.41388236
  -0.08401302  0.77900285  0.38428980
   0.63216734  0.66624989  0.35832079
Direct configuration=    19
   0.66666700  0.06339322  0.22418168
   0.73387559  0.26854548  0.04882289
   0.02022022  0.39630622  0.08098499
   0.06111748  0.60674862  0.12153240
   0.30512275  0.72846801  0.15624550
   0.45333350  0.93810277  0.22267495
   0.61779438  0.06573360  0.45746331
   0.66666700  0.26994078  0.27581857
   0.00000000  0.39672622  0.30751493
  -0.04787094  0.59804069  0.31626415
   0.23701452  0.72650036  0.37289008
   0.37912751  0.93743620  0.43419919
   0.07032654  0.21920442  0.03657703
   0.32581162  0.10974026  0.23526437
   0.07764034  0.00073681  0.23755097
   0.33333300  0.54870971  0.09551080
   0.68001758  0.44672071  0.08998918
   0.43862117  0.33321497  0.09426500
   0.76542092  0.88795297  0.20380642
  -0.00648863  0.77852478  0.17547781
   0.67344426  0.66550958  0.13308806
  -0.00262402  0.22029292  0.25679954
   0.33333300  0.11795629  0.48782245
   0.00000000  0.00000000  0.45833338
   0.31243677  0.55275559  0.31750174
   0.64894892  0.44247637  0.31970348
   0.28735907  0.33249387  0.26989229
   0.68250911  0.88468906  0.41334965
  -0.08582041  0.77898653  0.38394149
   0.63095576  0.66634310  0.35808783
Direct configuration=    20
   0.66666700  0.06339322  0.22418168
   0.73234263  0.26859736  0.04862088
   0.02169098  0.39621252  0.08111230
   0.05989575  0.60688293  0.12109676
   0.30360024  0.72849611  0.15611525
   0.45521838  0.93836486  0.22248520
   0.61894854  0.06587476  0.45798817
   0.66666700  0.26994078  0.27581857
   0.00000000  0.39672622  0.30751493
  -0.04958127  0.59809829  0.31618003
   0.23517991  0.72612275  0.37265654
   0.38144550  0.93759556  0.43509199
   0.06919913  0.21926030  0.03616168
   0.32375830  0.10984671  0.23388769
   0.07947873  0.00072760  0.23817596
   0.33333300  0.54870971  0.09551080
   0.67960599  0.44666930  0.08970157
   0.43999405  0.33318939  0.09500749
   0.76911836  0.88801160  0.20450498
  -0.00712493  0.77840779  0.17608431
   0.67072255  0.66531727  0.13237296
  -0.00227805  0.22023251  0.25745563
   0.33333300  0.11795629  0.48782245
   0.00000000  0.00000000  0.45833338
   0.30603131  0.55275836  0.31512957
   0.65197113  0.44234217  0.32073545
   0.28648494  0.33246075  0.26951021
   0.68314602  0.88494066  0.41357995
  -0.08746082  0.77895626  0.38351875
   0.63133435  0.66639728  0.35882274
