  60  60   1   0
  0.6963547E+02  0.1222472E-08  0.1345423E-08  0.2819962E-08  0.5000000E-15
  1.000000000000000E-004
  CAR 
 Tetradymite Slab                        
      6.36796790    -17.33408946  301     -1.26273934      1.00000000
    -17.334  0.0000E+00  0.0000E+00
    -17.255  0.0000E+00  0.0000E+00
    -17.176  0.0000E+00  0.0000E+00
    -17.097  0.0000E+00  0.0000E+00
    -17.018  0.0000E+00  0.0000E+00
    -16.939 -0.4199E-28 -0.3317E-29
    -16.860 -0.2042E-25 -0.1617E-26
    -16.781 -0.7279E-23 -0.5767E-24
    -16.702 -0.1899E-20 -0.1506E-21
    -16.623 -0.3626E-18 -0.2880E-19
    -16.544 -0.5067E-16 -0.4032E-17
    -16.465 -0.5032E-14 -0.4016E-15
    -16.386 -0.3739E-12 -0.2994E-13
    -16.307 -0.2031E-10 -0.1635E-11
    -16.228 -0.8049E-09 -0.6522E-10
    -16.149 -0.2323E-07 -0.1900E-08
    -16.070 -0.4872E-06 -0.4039E-07
    -15.991 -0.7401E-05 -0.6251E-06
    -15.912 -0.8103E-04 -0.7027E-05
    -15.833 -0.6337E-03 -0.5709E-04
    -15.754 -0.3482E-02 -0.3322E-03
    -15.675 -0.1297E-01 -0.1357E-02
    -15.596 -0.2974E-01 -0.3707E-02
    -15.517 -0.2545E-01 -0.5718E-02
    -15.438  0.7630E-01  0.3106E-03
    -15.359  0.3291E+00  0.2632E-01
    -15.280  0.6214E+00  0.7541E-01
    -15.201  0.7166E+00  0.1320E+00
    -15.122  0.5662E+00  0.1768E+00
    -15.043  0.4449E+00  0.2119E+00
    -14.964  0.5987E+00  0.2592E+00
    -14.885  0.9173E+00  0.3317E+00
    -14.806  0.1134E+01  0.4213E+00
    -14.727  0.1159E+01  0.5129E+00
    -14.648  0.1049E+01  0.5958E+00
    -14.569  0.8866E+00  0.6658E+00
    -14.490  0.7989E+00  0.7289E+00
    -14.411  0.9217E+00  0.8017E+00
    -14.332  0.1249E+01  0.9004E+00
    -14.253  0.1639E+01  0.1030E+01
    -14.174  0.1985E+01  0.1187E+01
    -14.095  0.2277E+01  0.1367E+01
    -14.016  0.2489E+01  0.1563E+01
    -13.937  0.2544E+01  0.1764E+01
    -13.858  0.2447E+01  0.1958E+01
    -13.779  0.2311E+01  0.2140E+01
    -13.700  0.2154E+01  0.2310E+01
    -13.621  0.1840E+01  0.2456E+01
    -13.542  0.1400E+01  0.2566E+01
    -13.463  0.1126E+01  0.2655E+01
    -13.384  0.1148E+01  0.2746E+01
    -13.305  0.1244E+01  0.2844E+01
    -13.226  0.1236E+01  0.2942E+01
    -13.147  0.1201E+01  0.3037E+01
    -13.068  0.1191E+01  0.3131E+01
    -12.989  0.1116E+01  0.3219E+01
    -12.910  0.9604E+00  0.3295E+01
    -12.831  0.8251E+00  0.3360E+01
    -12.752  0.7305E+00  0.3418E+01
    -12.673  0.5880E+00  0.3464E+01
    -12.594  0.4102E+00  0.3497E+01
    -12.515  0.3356E+00  0.3523E+01
    -12.436  0.3755E+00  0.3553E+01
    -12.357  0.3619E+00  0.3581E+01
    -12.278  0.2194E+00  0.3599E+01
    -12.199  0.6045E-01  0.3604E+01
    -12.120 -0.1398E-01  0.3602E+01
    -12.041 -0.1992E-01  0.3601E+01
    -11.962 -0.8791E-02  0.3600E+01
    -11.883 -0.2294E-02  0.3600E+01
    -11.804 -0.3966E-03  0.3600E+01
    -11.725 -0.4734E-04  0.3600E+01
    -11.646 -0.3983E-05  0.3600E+01
    -11.567 -0.2391E-06  0.3600E+01
    -11.488 -0.1822E-07  0.3600E+01
    -11.409 -0.1971E-06  0.3600E+01
    -11.330 -0.3531E-05  0.3600E+01
    -11.251 -0.4566E-04  0.3600E+01
    -11.172 -0.4225E-03  0.3600E+01
    -11.093 -0.2765E-02  0.3600E+01
    -11.014 -0.1252E-01  0.3599E+01
    -10.935 -0.3728E-01  0.3596E+01
    -10.856 -0.6178E-01  0.3591E+01
    -10.777 -0.4033E-03  0.3591E+01
    -10.698  0.2797E+00  0.3613E+01
    -10.619  0.7863E+00  0.3675E+01
    -10.539  0.1301E+01  0.3778E+01
    -10.460  0.1616E+01  0.3906E+01
    -10.381  0.1785E+01  0.4047E+01
    -10.302  0.1941E+01  0.4200E+01
    -10.223  0.2057E+01  0.4363E+01
    -10.144  0.2060E+01  0.4525E+01
    -10.065  0.1980E+01  0.4682E+01
     -9.986  0.1867E+01  0.4829E+01
     -9.907  0.1701E+01  0.4964E+01
     -9.828  0.1412E+01  0.5075E+01
     -9.749  0.1008E+01  0.5155E+01
     -9.670  0.6778E+00  0.5208E+01
     -9.591  0.6212E+00  0.5257E+01
     -9.512  0.7937E+00  0.5320E+01
     -9.433  0.9530E+00  0.5395E+01
     -9.354  0.9343E+00  0.5469E+01
     -9.275  0.7838E+00  0.5531E+01
     -9.196  0.6832E+00  0.5585E+01
     -9.117  0.7563E+00  0.5645E+01
     -9.038  0.9023E+00  0.5716E+01
     -8.959  0.9210E+00  0.5789E+01
     -8.880  0.7967E+00  0.5852E+01
     -8.801  0.6602E+00  0.5904E+01
     -8.722  0.5491E+00  0.5947E+01
     -8.643  0.4057E+00  0.5979E+01
     -8.564  0.2252E+00  0.5997E+01
     -8.485  0.7285E-01  0.6003E+01
     -8.406 -0.3940E-02  0.6003E+01
     -8.327 -0.1882E-01  0.6001E+01
     -8.248 -0.1100E-01  0.6000E+01
     -8.169 -0.3704E-02  0.6000E+01
     -8.090 -0.8298E-03  0.6000E+01
     -8.011 -0.1294E-03  0.6000E+01
     -7.932 -0.1435E-04  0.6000E+01
     -7.853 -0.1143E-05  0.6000E+01
     -7.774 -0.6582E-07  0.6000E+01
     -7.695 -0.2751E-08  0.6000E+01
     -7.616 -0.8371E-10  0.6000E+01
     -7.537 -0.1857E-11  0.6000E+01
     -7.458 -0.3634E-13  0.6000E+01
     -7.379 -0.4695E-12  0.6000E+01
     -7.300 -0.2533E-10  0.6000E+01
     -7.221 -0.9943E-09  0.6000E+01
     -7.142 -0.2834E-07  0.6000E+01
     -7.063 -0.5848E-06  0.6000E+01
     -6.984 -0.8709E-05  0.6000E+01
     -6.905 -0.9308E-04  0.6000E+01
     -6.826 -0.7081E-03  0.6000E+01
     -6.747 -0.3779E-02  0.6000E+01
     -6.668 -0.1373E-01  0.5999E+01
     -6.589 -0.3135E-01  0.5996E+01
     -6.510 -0.3094E-01  0.5994E+01
     -6.431  0.5812E-01  0.5998E+01
     -6.352  0.3045E+00  0.6022E+01
     -6.273  0.6683E+00  0.6075E+01
     -6.194  0.9763E+00  0.6152E+01
     -6.115  0.1076E+01  0.6237E+01
     -6.036  0.1002E+01  0.6316E+01
     -5.957  0.9225E+00  0.6389E+01
     -5.878  0.9525E+00  0.6465E+01
     -5.799  0.1125E+01  0.6553E+01
     -5.720  0.1435E+01  0.6667E+01
     -5.641  0.1806E+01  0.6809E+01
     -5.562  0.2081E+01  0.6974E+01
     -5.483  0.2125E+01  0.7142E+01
     -5.404  0.1953E+01  0.7296E+01
     -5.325  0.1727E+01  0.7433E+01
     -5.246  0.1599E+01  0.7559E+01
     -5.167  0.1615E+01  0.7686E+01
     -5.088  0.1759E+01  0.7825E+01
     -5.009  0.1977E+01  0.7982E+01
     -4.930  0.2172E+01  0.8153E+01
     -4.851  0.2280E+01  0.8333E+01
     -4.772  0.2338E+01  0.8518E+01
     -4.693  0.2416E+01  0.8709E+01
     -4.614  0.2509E+01  0.8907E+01
     -4.535  0.2557E+01  0.9109E+01
     -4.456  0.2564E+01  0.9312E+01
     -4.377  0.2599E+01  0.9517E+01
     -4.298  0.2676E+01  0.9728E+01
     -4.219  0.2719E+01  0.9943E+01
     -4.140  0.2700E+01  0.1016E+02
     -4.061  0.2667E+01  0.1037E+02
     -3.982  0.2638E+01  0.1058E+02
     -3.903  0.2591E+01  0.1078E+02
     -3.824  0.2556E+01  0.1098E+02
     -3.745  0.2571E+01  0.1119E+02
     -3.666  0.2593E+01  0.1139E+02
     -3.587  0.2577E+01  0.1159E+02
     -3.508  0.2547E+01  0.1180E+02
     -3.429  0.2499E+01  0.1199E+02
     -3.350  0.2353E+01  0.1218E+02
     -3.271  0.2071E+01  0.1234E+02
     -3.192  0.1752E+01  0.1248E+02
     -3.113  0.1558E+01  0.1260E+02
     -3.034  0.1559E+01  0.1273E+02
     -2.955  0.1701E+01  0.1286E+02
     -2.876  0.1914E+01  0.1301E+02
     -2.797  0.2160E+01  0.1318E+02
     -2.718  0.2375E+01  0.1337E+02
     -2.639  0.2491E+01  0.1357E+02
     -2.560  0.2532E+01  0.1377E+02
     -2.481  0.2575E+01  0.1397E+02
     -2.402  0.2648E+01  0.1418E+02
     -2.323  0.2741E+01  0.1440E+02
     -2.244  0.2844E+01  0.1462E+02
     -2.165  0.2937E+01  0.1485E+02
     -2.086  0.3010E+01  0.1509E+02
     -2.007  0.3074E+01  0.1533E+02
     -1.928  0.3082E+01  0.1558E+02
     -1.849  0.2916E+01  0.1581E+02
     -1.770  0.2550E+01  0.1601E+02
     -1.691  0.2160E+01  0.1618E+02
     -1.612  0.1949E+01  0.1633E+02
     -1.533  0.1899E+01  0.1648E+02
     -1.454  0.1767E+01  0.1662E+02
     -1.375  0.1348E+01  0.1673E+02
     -1.296  0.7355E+00  0.1679E+02
     -1.217  0.2632E+00  0.1681E+02
     -1.138  0.1496E+00  0.1682E+02
     -1.059  0.2926E+00  0.1684E+02
     -0.980  0.4741E+00  0.1688E+02
     -0.901  0.6264E+00  0.1693E+02
     -0.822  0.7644E+00  0.1699E+02
     -0.743  0.8225E+00  0.1706E+02
     -0.664  0.7435E+00  0.1712E+02
     -0.585  0.6130E+00  0.1716E+02
     -0.506  0.6060E+00  0.1721E+02
     -0.427  0.8038E+00  0.1727E+02
     -0.348  0.1071E+01  0.1736E+02
     -0.269  0.1207E+01  0.1745E+02
     -0.190  0.1200E+01  0.1755E+02
     -0.111  0.1183E+01  0.1764E+02
     -0.032  0.1255E+01  0.1774E+02
      0.047  0.1415E+01  0.1785E+02
      0.126  0.1601E+01  0.1798E+02
      0.205  0.1758E+01  0.1812E+02
      0.284  0.1885E+01  0.1827E+02
      0.363  0.1980E+01  0.1842E+02
      0.442  0.2007E+01  0.1858E+02
      0.521  0.1972E+01  0.1874E+02
      0.600  0.1960E+01  0.1889E+02
      0.679  0.2039E+01  0.1906E+02
      0.758  0.2183E+01  0.1923E+02
      0.837  0.2307E+01  0.1941E+02
      0.916  0.2376E+01  0.1960E+02
      0.996  0.2430E+01  0.1979E+02
      1.075  0.2495E+01  0.1999E+02
      1.154  0.2554E+01  0.2019E+02
      1.233  0.2590E+01  0.2039E+02
      1.312  0.2597E+01  0.2060E+02
      1.391  0.2559E+01  0.2080E+02
      1.470  0.2450E+01  0.2099E+02
      1.549  0.2282E+01  0.2117E+02
      1.628  0.2121E+01  0.2134E+02
      1.707  0.2039E+01  0.2150E+02
      1.786  0.2042E+01  0.2166E+02
      1.865  0.2091E+01  0.2183E+02
      1.944  0.2170E+01  0.2200E+02
      2.023  0.2275E+01  0.2218E+02
      2.102  0.2347E+01  0.2237E+02
      2.181  0.2302E+01  0.2255E+02
      2.260  0.2145E+01  0.2272E+02
      2.339  0.1977E+01  0.2287E+02
      2.418  0.1886E+01  0.2302E+02
      2.497  0.1884E+01  0.2317E+02
      2.576  0.1917E+01  0.2332E+02
      2.655  0.1887E+01  0.2347E+02
      2.734  0.1737E+01  0.2361E+02
      2.813  0.1507E+01  0.2373E+02
      2.892  0.1243E+01  0.2383E+02
      2.971  0.9459E+00  0.2390E+02
      3.050  0.6304E+00  0.2395E+02
      3.129  0.3506E+00  0.2398E+02
      3.208  0.1567E+00  0.2399E+02
      3.287  0.1167E+00  0.2400E+02
      3.366  0.3077E+00  0.2402E+02
      3.445  0.7017E+00  0.2408E+02
      3.524  0.1132E+01  0.2417E+02
      3.603  0.1447E+01  0.2428E+02
      3.682  0.1649E+01  0.2441E+02
      3.761  0.1801E+01  0.2456E+02
      3.840  0.1878E+01  0.2470E+02
      3.919  0.1817E+01  0.2485E+02
      3.998  0.1660E+01  0.2498E+02
      4.077  0.1548E+01  0.2510E+02
      4.156  0.1581E+01  0.2523E+02
      4.235  0.1662E+01  0.2536E+02
      4.314  0.1536E+01  0.2548E+02
      4.393  0.1080E+01  0.2556E+02
      4.472  0.4950E+00  0.2560E+02
      4.551  0.8714E-01  0.2561E+02
      4.630 -0.5566E-01  0.2561E+02
      4.709 -0.5145E-01  0.2560E+02
      4.788 -0.2138E-01  0.2560E+02
      4.867 -0.5626E-02  0.2560E+02
      4.946 -0.1013E-02  0.2560E+02
      5.025 -0.1287E-03  0.2560E+02
      5.104 -0.1170E-04  0.2560E+02
      5.183 -0.7666E-06  0.2560E+02
      5.262 -0.3639E-07  0.2560E+02
      5.341 -0.1255E-08  0.2560E+02
      5.420 -0.3149E-10  0.2560E+02
      5.499 -0.5760E-12  0.2560E+02
      5.578 -0.7637E-14  0.2560E+02
      5.657 -0.2810E-16  0.2560E+02
      5.736  0.0000E+00  0.2560E+02
      5.815  0.0000E+00  0.2560E+02
      5.894  0.0000E+00  0.2560E+02
      5.973  0.0000E+00  0.2560E+02
      6.052  0.0000E+00  0.2560E+02
      6.131  0.0000E+00  0.2560E+02
      6.210  0.0000E+00  0.2560E+02
      6.289  0.0000E+00  0.2560E+02
      6.368  0.0000E+00  0.2560E+02
      6.36796790    -17.33408946  301     -1.26273934      1.00000000
    -17.334  0.0000E+00  0.0000E+00  0.0000E+00  0.0000E+00  0.0000E+00  0.0000E+00  0.0000E+00  0.0000E+00  0.0000E+00
    -17.255  0.0000E+00  0.0000E+00  0.0000E+00  0.0000E+00  0.0000E+00  0.0000E+00  0.0000E+00  0.0000E+00  0.0000E+00
    -17.176  0.0000E+00  0.0000E+00  0.0000E+00  0.0000E+00  0.0000E+00  0.0000E+00  0.0000E+00  0.0000E+00  0.0000E+00
    -17.097  0.0000E+00  0.0000E+00  0.0000E+00  0.0000E+00  0.0000E+00  0.0000E+00  0.0000E+00  0.0000E+00  0.0000E+00
    -17.018  0.0000E+00  0.0000E+00  0.0000E+00  0.0000E+00  0.0000E+00  0.0000E+00  0.0000E+00  0.0000E+00  0.0000E+00
    -16.939 -0.2324E-29 -0.3557E-31 -0.1290E-30 -0.6290E-31 -0.6184E-35 -0.9460E-35 -0.2233E-33 -0.1535E-32 -0.3479E-34
    -16.860 -0.1133E-26 -0.1743E-28 -0.6295E-28 -0.3062E-28 -0.3020E-32 -0.4784E-32 -0.1088E-30 -0.7467E-30 -0.1715E-31
    -16.781 -0.4052E-24 -0.6267E-26 -0.2252E-25 -0.1092E-25 -0.1081E-29 -0.1768E-29 -0.3885E-28 -0.2662E-27 -0.6205E-29
    -16.702 -0.1060E-21 -0.1650E-23 -0.5898E-23 -0.2853E-23 -0.2833E-27 -0.4790E-27 -0.1016E-25 -0.6946E-25 -0.1645E-26
    -16.623 -0.2032E-19 -0.3180E-21 -0.1131E-20 -0.5454E-21 -0.5438E-25 -0.9514E-25 -0.1944E-23 -0.1326E-22 -0.3195E-24
    -16.544 -0.2849E-17 -0.4488E-19 -0.1587E-18 -0.7627E-19 -0.7643E-23 -0.1386E-22 -0.2723E-21 -0.1853E-20 -0.4545E-22
    -16.465 -0.2840E-15 -0.4505E-17 -0.1584E-16 -0.7580E-17 -0.7647E-21 -0.1442E-20 -0.2711E-19 -0.1839E-18 -0.4608E-20
    -16.386 -0.2117E-13 -0.3382E-15 -0.1181E-14 -0.5634E-15 -0.5722E-19 -0.1120E-18 -0.2019E-17 -0.1366E-16 -0.3488E-18
    -16.307 -0.1154E-11 -0.1857E-13 -0.6446E-13 -0.3061E-13 -0.3137E-17 -0.6405E-17 -0.1099E-15 -0.7408E-15 -0.1936E-16
    -16.228 -0.4583E-10 -0.7437E-12 -0.2564E-11 -0.1212E-11 -0.1256E-15 -0.2684E-15 -0.4362E-14 -0.2928E-13 -0.7840E-15
    -16.149 -0.1325E-08 -0.2168E-10 -0.7418E-10 -0.3489E-10 -0.3669E-14 -0.8239E-14 -0.1260E-12 -0.8419E-12 -0.2313E-13
    -16.070 -0.2777E-07 -0.4585E-09 -0.1557E-08 -0.7285E-09 -0.7804E-13 -0.1852E-12 -0.2639E-11 -0.1756E-10 -0.4960E-12
    -15.991 -0.4207E-06 -0.7011E-08 -0.2362E-07 -0.1099E-07 -0.1205E-11 -0.3042E-11 -0.3995E-10 -0.2644E-09 -0.7697E-11
    -15.912 -0.4572E-05 -0.7697E-07 -0.2571E-06 -0.1189E-06 -0.1344E-10 -0.3641E-10 -0.4341E-09 -0.2856E-08 -0.8590E-10
    -15.833 -0.3526E-04 -0.6002E-06 -0.1985E-05 -0.9124E-06 -0.1075E-09 -0.3157E-09 -0.3349E-08 -0.2189E-07 -0.6824E-09
    -15.754 -0.1890E-03 -0.3259E-05 -0.1066E-04 -0.4867E-05 -0.6057E-09 -0.1958E-08 -0.1797E-07 -0.1167E-06 -0.3786E-08
    -15.675 -0.6744E-03 -0.1181E-04 -0.3810E-04 -0.1727E-04 -0.2328E-08 -0.8488E-08 -0.6421E-07 -0.4138E-06 -0.1410E-07
    -15.596 -0.1414E-02 -0.2540E-04 -0.8009E-04 -0.3602E-04 -0.5588E-08 -0.2440E-07 -0.1351E-06 -0.8648E-06 -0.3163E-07
    -15.517 -0.7560E-03 -0.1547E-04 -0.4303E-04 -0.1934E-04 -0.5656E-08 -0.4031E-07 -0.7302E-07 -0.4856E-06 -0.2334E-07
    -15.438  0.4870E-02  0.8344E-04  0.2773E-03  0.1201E-03  0.1078E-07 -0.1546E-07  0.4695E-06  0.2742E-05  0.9306E-07
    -15.359  0.1637E-01  0.2963E-03  0.9395E-03  0.3951E-03  0.5125E-07  0.6847E-07  0.1604E-05  0.8927E-05  0.3584E-06
    -15.280  0.2636E-01  0.4991E-03  0.1533E-02  0.6099E-03  0.8955E-07  0.1001E-06  0.2652E-05  0.1325E-04  0.6207E-06
    -15.201  0.2613E-01  0.5140E-03  0.1541E-02  0.5851E-03  0.8606E-07  0.5263E-07  0.2686E-05  0.1233E-04  0.6160E-06
    -15.122  0.2164E-01  0.3774E-03  0.1205E-02  0.6166E-03  0.7545E-07  0.5754E-06  0.1912E-05  0.1626E-04  0.3088E-06
    -15.043  0.3042E-01  0.3449E-03  0.1404E-02  0.1288E-02  0.1732E-06  0.2735E-05  0.1588E-05  0.4168E-04  0.1526E-07
    -14.964  0.5486E-01  0.5424E-03  0.2335E-02  0.2536E-02  0.4352E-06  0.7006E-05  0.2338E-05  0.8501E-04  0.2671E-06
    -14.885  0.7386E-01  0.8085E-03  0.3058E-02  0.3536E-02  0.9202E-06  0.1471E-04  0.3716E-05  0.1244E-03  0.1944E-05
    -14.806  0.7435E-01  0.9862E-03  0.2873E-02  0.4028E-02  0.2042E-05  0.2920E-04  0.5499E-05  0.1586E-03  0.5920E-05
    -14.727  0.7095E-01  0.1114E-02  0.2308E-02  0.4680E-02  0.4201E-05  0.4850E-04  0.7595E-05  0.2022E-03  0.1100E-04
    -14.648  0.7558E-01  0.1182E-02  0.2038E-02  0.5472E-02  0.6443E-05  0.5953E-04  0.8607E-05  0.2325E-03  0.1335E-04
    -14.569  0.7360E-01  0.1033E-02  0.1820E-02  0.5279E-02  0.6583E-05  0.5189E-04  0.6755E-05  0.2044E-03  0.1098E-04
    -14.490  0.5326E-01  0.6757E-03  0.1249E-02  0.3926E-02  0.3829E-05  0.3411E-04  0.2196E-05  0.1282E-03  0.7226E-05
    -14.411  0.3264E-01  0.3843E-03  0.6660E-03  0.2942E-02  0.2567E-06  0.2447E-04 -0.2758E-05  0.7092E-04  0.6309E-05
    -14.332  0.3595E-01  0.4305E-03  0.7144E-03  0.3430E-02  0.3970E-06  0.3176E-04 -0.3132E-05  0.8264E-04  0.9154E-05
    -14.253  0.6311E-01  0.1041E-02  0.1581E-02  0.4627E-02  0.1268E-04  0.5387E-04  0.1069E-04  0.1667E-03  0.1822E-04
    -14.174  0.9561E-01  0.2559E-02  0.2957E-02  0.5142E-02  0.4918E-04  0.8733E-04  0.4935E-04  0.3049E-03  0.4274E-04
    -14.095  0.1185E+00  0.5463E-02  0.4262E-02  0.4541E-02  0.1201E-03  0.1327E-03  0.1176E-03  0.4842E-03  0.9682E-04
    -14.016  0.1281E+00  0.1014E-01  0.4872E-02  0.3324E-02  0.2256E-03  0.1963E-03  0.2143E-03  0.7138E-03  0.1919E-03
    -13.937  0.1251E+00  0.1569E-01  0.4627E-02  0.2172E-02  0.3405E-03  0.2749E-03  0.3212E-03  0.9842E-03  0.3114E-03
    -13.858  0.1084E+00  0.1905E-01  0.4148E-02  0.1962E-02  0.4384E-03  0.3262E-03  0.4004E-03  0.1170E-02  0.4040E-03
    -13.779  0.8414E-01  0.1828E-01  0.4366E-02  0.3996E-02  0.6107E-03  0.2970E-03  0.4671E-03  0.1098E-02  0.4755E-03
    -13.700  0.7093E-01  0.1623E-01  0.5609E-02  0.8743E-02  0.1044E-02  0.1950E-03  0.6205E-03  0.7712E-03  0.6358E-03
    -13.621  0.7591E-01  0.1602E-01  0.6904E-02  0.1372E-01  0.1629E-02  0.8633E-04  0.8477E-03  0.3833E-03  0.8815E-03
    -13.542  0.7710E-01  0.1521E-01  0.6557E-02  0.1450E-01  0.1816E-02  0.1973E-04  0.9050E-03  0.1087E-03  0.9530E-03
    -13.463  0.5445E-01  0.1042E-01  0.4134E-02  0.9847E-02  0.1295E-02 -0.6248E-05  0.6365E-03 -0.2156E-04  0.6745E-03
    -13.384  0.2070E-01  0.3894E-02  0.1185E-02  0.3623E-02  0.4970E-03 -0.1404E-04  0.2418E-03 -0.7146E-04  0.2533E-03
    -13.305 -0.4987E-04  0.2532E-03 -0.4361E-03  0.1351E-04  0.2479E-04 -0.1246E-04  0.1467E-04 -0.7715E-04  0.9743E-05
    -13.226 -0.7793E-03  0.1360E-02  0.3362E-03 -0.4255E-03  0.5202E-04  0.1758E-04  0.4518E-04  0.6108E-04  0.5973E-04
    -13.147  0.1233E-01  0.6487E-02  0.3885E-02  0.8328E-03  0.4419E-03  0.9940E-04  0.2695E-03  0.5027E-03  0.3520E-03
    -13.068  0.2887E-01  0.1262E-01  0.8697E-02  0.2431E-02  0.9275E-03  0.2030E-03  0.5440E-03  0.1146E-02  0.7117E-03
    -12.989  0.3592E-01  0.1487E-01  0.1105E-01  0.3236E-02  0.1137E-02  0.2436E-03  0.6579E-03  0.1514E-02  0.8573E-03
    -12.910  0.2771E-01  0.1109E-01  0.8780E-02  0.2668E-02  0.8856E-03  0.1820E-03  0.5078E-03  0.1261E-02  0.6545E-03
    -12.831  0.1251E-01  0.4805E-02  0.4145E-02  0.1320E-02  0.4103E-03  0.7865E-04  0.2327E-03  0.6328E-03  0.2932E-03
    -12.752  0.1844E-02  0.5921E-03  0.7435E-03  0.2562E-03  0.6793E-04  0.1059E-04  0.3664E-04  0.1305E-03  0.4016E-04
    -12.673 -0.1469E-02 -0.6360E-03 -0.3831E-03 -0.1203E-03 -0.4258E-04 -0.8310E-05 -0.2590E-04 -0.5269E-04 -0.3704E-04
    -12.594 -0.1150E-02 -0.4683E-03 -0.3177E-03 -0.4483E-04 -0.2979E-04 -0.4754E-05 -0.1902E-04 -0.3856E-04 -0.1813E-04
    -12.515 -0.3983E-03 -0.1698E-03 -0.7204E-04  0.1943E-03  0.6096E-05  0.1578E-05 -0.6821E-06  0.2850E-04  0.2575E-04
    -12.436 -0.4609E-04 -0.3951E-04  0.6051E-04  0.4001E-03  0.2999E-04  0.5452E-05  0.1053E-04  0.8026E-04  0.6004E-04
    -12.357  0.4177E-04 -0.5880E-05  0.8766E-04  0.4172E-03  0.3328E-04  0.5897E-05  0.1237E-04  0.8637E-04  0.6334E-04
    -12.278  0.3391E-04 -0.2488E-06  0.5560E-04  0.2518E-03  0.2029E-04  0.3588E-05  0.7598E-05  0.5241E-04  0.3828E-04
    -12.199  0.9743E-05  0.5576E-07  0.1549E-04  0.7001E-04  0.5642E-05  0.9942E-06  0.2116E-05  0.1458E-04  0.1065E-04
    -12.120 -0.2289E-05 -0.1081E-06 -0.3400E-05 -0.1390E-04 -0.1143E-05 -0.2095E-06 -0.4284E-06 -0.2913E-05 -0.2110E-05
    -12.041 -0.3260E-05 -0.1021E-06 -0.4961E-05 -0.2119E-04 -0.1726E-05 -0.3107E-06 -0.6474E-06 -0.4428E-05 -0.3219E-05
    -11.962 -0.1440E-05 -0.4316E-07 -0.2195E-05 -0.9404E-05 -0.7654E-06 -0.1375E-06 -0.2871E-06 -0.1965E-05 -0.1428E-05
    -11.883 -0.3761E-06 -0.1116E-07 -0.5734E-06 -0.2458E-05 -0.2000E-06 -0.3592E-07 -0.7501E-07 -0.5135E-06 -0.3733E-06
    -11.804 -0.6506E-07 -0.1922E-08 -0.9916E-07 -0.4250E-06 -0.3458E-07 -0.6209E-08 -0.1297E-07 -0.8879E-07 -0.6455E-07
    -11.725 -0.7772E-08 -0.2290E-09 -0.1184E-07 -0.5074E-07 -0.4128E-08 -0.7411E-09 -0.1548E-08 -0.1060E-07 -0.7706E-08
    -11.646 -0.6547E-09 -0.1927E-10 -0.9965E-09 -0.4270E-08 -0.3473E-09 -0.6234E-10 -0.1303E-09 -0.8919E-09 -0.6483E-09
    -11.567 -0.6023E-10 -0.2185E-11 -0.5990E-10 -0.2563E-09 -0.2090E-10 -0.3740E-11 -0.7813E-11 -0.5354E-10 -0.3891E-10
    -11.488 -0.7103E-09 -0.3458E-10 -0.6314E-11 -0.1689E-10 -0.3432E-11 -0.2091E-12 -0.3380E-12 -0.3834E-11 -0.2452E-11
    -11.409 -0.1735E-07 -0.8340E-09 -0.9141E-10 -0.1421E-09 -0.6132E-10 -0.1174E-11 -0.5386E-13 -0.3712E-10 -0.1885E-10
    -11.330 -0.3071E-06 -0.1448E-07 -0.1613E-08 -0.2468E-08 -0.1065E-08 -0.2051E-10 -0.8742E-12 -0.6449E-09 -0.3268E-09
    -11.251 -0.3918E-05 -0.1794E-06 -0.2054E-07 -0.3078E-07 -0.1324E-07 -0.2592E-09 -0.1290E-10 -0.8021E-08 -0.4060E-08
    -11.172 -0.3585E-04 -0.1570E-05 -0.1876E-06 -0.2725E-06 -0.1164E-06 -0.2348E-08 -0.1393E-09 -0.7060E-07 -0.3569E-07
    -11.093 -0.2334E-03 -0.9524E-05 -0.1218E-05 -0.1688E-05 -0.7126E-06 -0.1513E-07 -0.1097E-08 -0.4322E-06 -0.2183E-06
    -11.014 -0.1063E-02 -0.3857E-04 -0.5529E-05 -0.7114E-05 -0.2936E-05 -0.6853E-07 -0.6238E-08 -0.1779E-05 -0.8977E-06
    -10.935 -0.3262E-02 -0.9449E-04 -0.1687E-04 -0.1903E-04 -0.7481E-05 -0.2124E-06 -0.2523E-07 -0.4521E-05 -0.2281E-05
    -10.856 -0.5960E-02 -0.8632E-04 -0.3054E-04 -0.2479E-04 -0.8153E-05 -0.4246E-06 -0.7033E-07 -0.4900E-05 -0.2471E-05
    -10.777 -0.2548E-02  0.2445E-03 -0.1192E-04  0.2237E-04  0.1470E-04 -0.4546E-06 -0.1275E-06  0.8720E-05  0.4473E-05
    -10.698  0.1867E-01  0.1056E-02  0.1014E-03  0.1737E-03  0.7771E-04  0.1417E-07 -0.1319E-06  0.4520E-04  0.2339E-04
    -10.619  0.5897E-01  0.1911E-02  0.3294E-03  0.3930E-03  0.1569E-03  0.9556E-06 -0.2672E-07  0.8860E-04  0.4676E-04
    -10.539  0.9553E-01  0.2047E-02  0.5909E-03  0.5373E-03  0.1936E-03  0.3555E-05  0.3416E-06  0.1074E-03  0.5751E-04
    -10.460  0.1176E+00  0.1415E-02  0.8312E-03  0.5197E-03  0.1632E-03  0.1440E-04  0.1975E-05  0.1016E-03  0.5054E-04
    -10.381  0.2016E+00  0.7614E-03  0.1185E-02  0.4797E-03  0.1045E-03  0.4267E-04  0.6919E-05  0.1090E-03  0.4033E-04
    -10.302  0.4891E+00  0.5571E-03  0.1766E-02  0.7010E-03  0.6727E-04  0.8398E-04  0.1561E-04  0.1480E-03  0.4002E-04
    -10.223  0.9851E+00  0.6107E-03  0.2370E-02  0.1292E-02  0.6263E-04  0.1175E-03  0.2428E-04  0.1932E-03  0.4550E-04
    -10.144  0.1405E+01  0.6489E-03  0.2770E-02  0.1969E-02  0.7129E-04  0.1356E-03  0.2820E-04  0.2237E-03  0.4680E-04
    -10.065  0.1408E+01  0.6202E-03  0.3071E-02  0.2268E-02  0.7348E-04  0.1581E-03  0.2724E-04  0.2457E-03  0.4302E-04
     -9.986  0.1027E+01  0.5292E-03  0.3352E-02  0.2020E-02  0.6480E-04  0.1949E-03  0.2589E-04  0.2562E-03  0.3881E-04
     -9.907  0.6139E+00  0.3730E-03  0.3281E-02  0.1459E-02  0.5225E-04  0.2184E-03  0.2740E-04  0.2351E-03  0.3547E-04
     -9.828  0.3748E+00  0.2012E-03  0.2532E-02  0.8827E-03  0.3985E-04  0.1924E-03  0.2843E-04  0.1768E-03  0.3029E-04
     -9.749  0.2516E+00  0.8298E-04  0.1426E-02  0.4270E-03  0.2591E-04  0.1226E-03  0.2318E-04  0.1039E-03  0.2160E-04
     -9.670  0.2049E+00  0.5324E-04  0.7939E-03  0.1604E-03  0.1245E-04  0.5824E-04  0.1289E-04  0.5303E-04  0.1451E-04
     -9.591  0.2806E+00  0.1077E-03  0.1082E-02  0.1236E-03  0.5140E-05  0.3738E-04  0.4853E-05  0.4541E-04  0.1737E-04
     -9.512  0.4265E+00  0.2051E-03  0.1836E-02  0.2518E-03  0.4424E-05  0.4882E-04  0.2627E-05  0.6393E-04  0.3036E-04
     -9.433  0.4937E+00  0.2870E-03  0.2298E-02  0.3971E-03  0.5469E-05  0.5863E-04  0.3457E-05  0.7343E-04  0.4391E-04
     -9.354  0.4243E+00  0.3155E-03  0.2197E-02  0.4461E-03  0.4917E-05  0.5145E-04  0.3773E-05  0.5996E-04  0.4852E-04
     -9.275  0.3137E+00  0.2864E-03  0.1716E-02  0.3842E-03  0.3210E-05  0.3434E-04  0.3098E-05  0.3777E-04  0.4137E-04
     -9.196  0.3046E+00  0.2275E-03  0.1110E-02  0.2804E-03  0.2120E-05  0.1867E-04  0.3482E-05  0.2649E-04  0.2673E-04
     -9.117  0.4412E+00  0.1870E-03  0.6168E-03  0.2158E-03  0.2416E-05  0.9891E-05  0.6506E-05  0.3118E-04  0.1339E-04
     -9.038  0.5919E+00  0.1853E-03  0.3539E-03  0.1989E-03  0.3704E-05  0.6979E-05  0.1115E-04  0.3936E-04  0.7190E-05
     -8.959  0.5881E+00  0.1955E-03  0.2270E-03  0.1792E-03  0.5650E-05  0.5775E-05  0.1505E-04  0.3657E-04  0.6264E-05
     -8.880  0.4382E+00  0.2003E-03  0.1211E-03  0.1406E-03  0.8151E-05  0.4159E-05  0.1685E-04  0.2392E-04  0.6053E-05
     -8.801  0.2766E+00  0.2149E-03  0.3806E-04  0.1098E-03  0.9964E-05  0.2967E-05  0.1600E-04  0.1246E-04  0.4999E-05
     -8.722  0.1685E+00  0.2358E-03  0.2493E-05  0.9506E-04  0.9148E-05  0.2772E-05  0.1231E-04  0.6846E-05  0.3705E-05
     -8.643  0.9396E-01  0.2227E-03 -0.2937E-05  0.7737E-04  0.5774E-05  0.2690E-05  0.7018E-05  0.4200E-05  0.2514E-05
     -8.564  0.3791E-01  0.1540E-03 -0.1791E-05  0.4775E-04  0.2182E-05  0.1947E-05  0.2524E-05  0.2056E-05  0.1381E-05
     -8.485  0.5245E-02  0.6524E-04 -0.1224E-05  0.1776E-04  0.1787E-06  0.8530E-06  0.1891E-06  0.4745E-06  0.4615E-06
     -8.406 -0.5453E-02  0.7078E-05 -0.8928E-06  0.5397E-06 -0.3329E-06  0.9971E-07 -0.4111E-06 -0.1941E-06 -0.2164E-07
     -8.327 -0.4921E-02 -0.9970E-05 -0.4853E-06 -0.3651E-05 -0.2392E-06 -0.1290E-06 -0.3060E-06 -0.2442E-06 -0.1226E-06
     -8.248 -0.2245E-02 -0.7240E-05 -0.1856E-06 -0.2339E-05 -0.9429E-07 -0.9579E-07 -0.1267E-06 -0.1229E-06 -0.7328E-07
     -8.169 -0.6764E-03 -0.2638E-05 -0.5051E-07 -0.8164E-06 -0.2546E-07 -0.3530E-07 -0.3585E-07 -0.3906E-07 -0.2497E-07
     -8.090 -0.1429E-03 -0.6162E-06 -0.9882E-08 -0.1863E-06 -0.4965E-08 -0.8319E-08 -0.7261E-08 -0.8536E-08 -0.5626E-08
     -8.011 -0.2160E-04 -0.9865E-07 -0.1398E-08 -0.2938E-07 -0.7099E-09 -0.1342E-08 -0.1067E-08 -0.1321E-08 -0.8796E-09
     -7.932 -0.2355E-05 -0.1113E-07 -0.1435E-09 -0.3277E-08 -0.7458E-10 -0.1526E-09 -0.1141E-09 -0.1465E-09 -0.9751E-10
     -7.853 -0.1861E-06 -0.8981E-09 -0.1071E-10 -0.2620E-09 -0.5752E-11 -0.1240E-10 -0.8904E-11 -0.1174E-10 -0.7755E-11
     -7.774 -0.1069E-07 -0.5223E-10 -0.5834E-12 -0.1513E-10 -0.3252E-12 -0.7263E-12 -0.5069E-12 -0.6818E-12 -0.4455E-12
     -7.695 -0.4473E-09 -0.2200E-11 -0.2322E-13 -0.6333E-12 -0.1346E-13 -0.3081E-13 -0.2107E-13 -0.2878E-13 -0.1856E-13
     -7.616 -0.1365E-10 -0.6736E-13 -0.6765E-15 -0.1929E-13 -0.4077E-15 -0.9496E-15 -0.6397E-15 -0.8850E-15 -0.5628E-15
     -7.537 -0.3039E-12 -0.1502E-14 -0.1742E-16 -0.4326E-15 -0.9047E-17 -0.2140E-16 -0.1426E-16 -0.1985E-16 -0.1247E-16
     -7.458 -0.4940E-14 -0.8150E-16 -0.2952E-15 -0.4474E-15 -0.1536E-17 -0.8952E-17 -0.7129E-17 -0.1354E-17 -0.3338E-17
     -7.379 -0.4979E-15 -0.4258E-14 -0.2186E-13 -0.3270E-13 -0.1028E-15 -0.6388E-15 -0.5106E-15 -0.7680E-16 -0.2328E-15
     -7.300 -0.2327E-13 -0.2310E-12 -0.1178E-11 -0.1766E-11 -0.5522E-14 -0.3450E-13 -0.2747E-13 -0.4168E-14 -0.1257E-13
     -7.221 -0.9036E-12 -0.9116E-11 -0.4612E-10 -0.6934E-10 -0.2157E-12 -0.1355E-11 -0.1074E-11 -0.1645E-12 -0.4930E-12
     -7.142 -0.2545E-10 -0.2611E-09 -0.1309E-08 -0.1974E-08 -0.6105E-11 -0.3858E-10 -0.3046E-10 -0.4713E-11 -0.1403E-10
     -7.063 -0.5185E-09 -0.5415E-08 -0.2687E-07 -0.4064E-07 -0.1249E-09 -0.7943E-09 -0.6240E-09 -0.9770E-10 -0.2886E-09
     -6.984 -0.7612E-08 -0.8092E-07 -0.3965E-06 -0.6016E-06 -0.1837E-08 -0.1177E-07 -0.9195E-08 -0.1459E-08 -0.4270E-08
     -6.905 -0.8014E-07 -0.8658E-06 -0.4175E-05 -0.6358E-05 -0.1928E-07 -0.1244E-06 -0.9671E-07 -0.1558E-07 -0.4512E-07
     -6.826 -0.6003E-06 -0.6560E-05 -0.3098E-04 -0.4735E-04 -0.1426E-06 -0.9276E-06 -0.7168E-06 -0.1177E-06 -0.3362E-06
     -6.747 -0.3158E-05 -0.3453E-04 -0.1581E-03 -0.2426E-03 -0.7262E-06 -0.4762E-05 -0.3658E-05 -0.6151E-06 -0.1726E-05
     -6.668 -0.1139E-04 -0.1212E-03 -0.5271E-03 -0.8113E-03 -0.2418E-05 -0.1599E-04 -0.1221E-04 -0.2129E-05 -0.5805E-05
     -6.589 -0.2678E-04 -0.2540E-03 -0.9783E-03 -0.1506E-02 -0.4497E-05 -0.3000E-04 -0.2286E-04 -0.4303E-05 -0.1098E-04
     -6.510 -0.3572E-04 -0.1663E-03 -0.1305E-03 -0.1545E-03 -0.6805E-06 -0.4693E-05 -0.4286E-05 -0.2112E-05 -0.2279E-05
     -6.431 -0.1040E-04  0.6954E-03  0.4395E-02  0.7058E-02  0.2000E-04  0.1352E-03  0.9774E-04  0.1432E-04  0.4714E-04
     -6.352  0.5506E-04  0.2503E-02  0.1232E-01  0.1986E-01  0.5664E-04  0.3879E-03  0.2781E-03  0.4690E-04  0.1369E-03
     -6.273  0.1988E-03  0.4455E-02  0.1816E-01  0.2927E-01  0.8307E-04  0.5848E-03  0.4173E-03  0.7861E-04  0.2089E-03
     -6.194  0.7779E-03  0.5998E-02  0.1750E-01  0.2641E-01  0.7406E-04  0.5538E-03  0.4307E-03  0.9449E-04  0.2094E-03
     -6.115  0.2442E-02  0.8291E-02  0.1430E-01  0.1474E-01  0.4613E-04  0.3532E-03  0.4280E-03  0.1072E-03  0.1686E-03
     -6.036  0.5052E-02  0.1218E-01  0.1472E-01  0.5037E-02  0.4915E-04  0.1827E-03  0.5333E-03  0.1310E-03  0.1461E-03
     -5.957  0.7049E-02  0.1552E-01  0.1784E-01  0.2482E-02  0.1199E-03  0.1403E-03  0.6421E-03  0.1528E-03  0.1419E-03
     -5.878  0.7374E-02  0.1628E-01  0.2096E-01  0.5993E-02  0.2570E-03  0.1937E-03  0.6042E-03  0.1771E-03  0.1491E-03
     -5.799  0.7208E-02  0.1719E-01  0.2713E-01  0.1424E-01  0.4252E-03  0.2945E-03  0.5048E-03  0.2611E-03  0.2326E-03
     -5.720  0.8159E-02  0.2273E-01  0.3875E-01  0.2697E-01  0.5800E-03  0.4262E-03  0.5203E-03  0.4417E-03  0.4544E-03
     -5.641  0.1023E-01  0.3342E-01  0.5119E-01  0.4352E-01  0.7099E-03  0.5801E-03  0.6579E-03  0.6836E-03  0.7596E-03
     -5.562  0.1288E-01  0.4705E-01  0.5911E-01  0.6050E-01  0.8396E-03  0.7304E-03  0.8067E-03  0.9506E-03  0.1011E-02
     -5.483  0.1583E-01  0.6209E-01  0.6206E-01  0.7020E-01  0.9578E-03  0.8401E-03  0.8969E-03  0.1239E-02  0.1109E-02
     -5.404  0.1788E-01  0.7612E-01  0.6110E-01  0.6644E-01  0.9971E-03  0.9004E-03  0.9246E-03  0.1501E-02  0.1053E-02
     -5.325  0.1726E-01  0.8352E-01  0.5709E-01  0.5315E-01  0.9308E-03  0.9383E-03  0.9135E-03  0.1639E-02  0.9124E-03
     -5.246  0.1407E-01  0.7832E-01  0.5187E-01  0.4126E-01  0.8229E-03  0.9549E-03  0.8794E-03  0.1590E-02  0.7653E-03
     -5.167  0.1035E-01  0.6162E-01  0.4664E-01  0.3782E-01  0.7635E-03  0.9065E-03  0.8128E-03  0.1358E-02  0.6691E-03
     -5.088  0.7841E-02  0.4607E-01  0.4197E-01  0.4148E-01  0.8382E-03  0.7772E-03  0.7067E-03  0.1036E-02  0.6841E-03
     -5.009  0.6910E-02  0.4960E-01  0.3984E-01  0.4618E-01  0.1173E-02  0.6092E-03  0.5810E-03  0.7916E-03  0.8466E-03