   60   60   20    1
  0.6963547E+02  0.1222472E-08  0.1345423E-08  0.2819962E-08  0.5000000E-15
  1.000000000000000E-004
  CAR 
 Tetradymite Slab                        
    336     22    256
 
  0.0000000E+00  0.0000000E+00  0.0000000E+00  0.2500000E-01
    1      -15.334087   1.000000
    2      -15.187047   1.000000
    3      -14.901409   1.000000
    4      -14.887202   1.000000
    5      -14.713890   1.000000
    6      -14.702209   1.000000
    7      -14.604982   1.000000
    8      -14.529264   1.000000
    9      -14.362300   1.000000
   10      -14.306392   1.000000
   11      -14.273822   1.000000
   12      -14.220971   1.000000
   13      -14.140761   1.000000
   14      -14.092873   1.000000
   15      -14.048125   1.000000
   16      -14.022563   1.000000
   17      -13.984135   1.000000
   18      -13.935956   1.000000
   19      -13.893038   1.000000
   20      -13.845120   1.000000
   21      -13.803326   1.000000
   22      -13.792715   1.000000
   23      -13.716673   1.000000
   24      -13.672345   1.000000
   25      -13.636203   1.000000
   26      -13.585340   1.000000
   27      -13.436071   1.000000
   28      -13.352319   1.000000
   29      -13.338572   1.000000
   30      -13.209925   1.000000
   31      -13.127290   1.000000
   32      -13.050262   1.000000
   33      -12.973239   1.000000
   34      -12.831011   1.000000
   35      -12.708855   1.000000
   36      -12.434045   1.000000
   37      -10.606561   1.000000
   38      -10.574865   1.000000
   39      -10.516812   1.000000
   40      -10.472363   1.000000
   41      -10.346412   1.000000
   42      -10.327223   1.000000
   43      -10.258320   1.000000
   44      -10.211423   1.000000
   45      -10.184127   1.000000
   46      -10.144126   1.000000
   47      -10.012610   1.000000
   48       -9.997705   1.000000
   49       -9.921353   1.000000
   50       -9.874357   1.000000
   51       -9.816906   1.000000
   52       -9.700232   1.000000
   53       -9.662811   1.000000
   54       -9.539586   1.000000
   55       -9.526117   1.000000
   56       -9.487182   1.000000
   57       -9.060385   1.000000
   58       -8.997509   1.000000
   59       -8.801822   1.000000
   60       -8.627268   1.000000
   61       -6.255995   1.000000
   62       -6.149964   1.000000
   63       -6.112236   1.000000
   64       -5.989582   1.000000
   65       -5.975151   1.000000
   66       -5.795074   1.000000
   67       -5.733969   1.000000
   68       -5.695125   1.000000
   69       -5.652746   1.000000
   70       -5.618150   1.000000
   71       -5.546548   1.000000
   72       -5.481408   1.000000
   73       -5.414383   1.000000
   74       -5.339025   1.000000
   75       -5.291534   1.000000
   76       -5.252469   1.000000
   77       -5.175586   1.000000
   78       -5.151758   1.000000
   79       -5.090961   1.000000
   80       -4.995851   1.000000
   81       -4.980109   1.000000
   82       -4.910804   1.000000
   83       -4.861833   1.000000
   84       -4.821596   1.000000
   85       -4.757605   1.000000
   86       -4.730625   1.000000
   87       -4.720517   1.000000
   88       -4.653890   1.000000
   89       -4.620636   1.000000
   90       -4.599337   1.000000
   91       -4.595829   1.000000
   92       -4.551193   1.000000
   93       -4.492193   1.000000
   94       -4.473923   1.000000
   95       -4.419591   1.000000
   96       -4.400104   1.000000
   97       -4.358421   1.000000
   98       -4.314364   1.000000
   99       -4.276151   1.000000
  100       -4.244713   1.000000
  101       -4.184655   1.000000
  102       -4.121399   1.000000
  103       -4.105548   1.000000
  104       -4.054371   1.000000
  105       -4.042733   1.000000
  106       -3.946027   1.000000
  107       -3.910797   1.000000
  108       -3.893393   1.000000
  109       -3.861404   1.000000
  110       -3.810749   1.000000
  111       -3.784456   1.000000
  112       -3.742414   1.000000
  113       -3.721323   1.000000
  114       -3.695005   1.000000
  115       -3.654868   1.000000
  116       -3.590043   1.000000
  117       -3.539992   1.000000
  118       -3.508409   1.000000
  119       -3.496784   1.000000
  120       -3.460004   1.000000
  121       -3.424998   1.000000
  122       -3.352813   1.000000
  123       -3.325072   1.000000
  124       -3.296542   1.000000
  125       -3.168120   1.000000
  126       -3.104527   1.000000
  127       -3.026064   1.000000
  128       -2.982132   1.000000
  129       -2.952032   1.000000
  130       -2.934667   1.000000
  131       -2.828933   1.000000
  132       -2.787667   1.000000
  133       -2.748412   1.000000
  134       -2.712377   1.000000
  135       -2.678165   1.000000
  136       -2.661596   1.000000
  137       -2.610498   1.000000
  138       -2.593688   1.000000
  139       -2.562859   1.000000
  140       -2.508879   1.000000
  141       -2.484881   1.000000
  142       -2.426005   1.000000
  143       -2.370271   1.000000
  144       -2.329774   1.000000
  145       -2.309393   1.000000
  146       -2.242809   1.000000
  147       -2.238955   1.000000
  148       -2.223260   1.000000
  149       -2.184230   1.000000
  150       -2.168177   1.000000
  151       -2.129145   1.000000
  152       -2.088794   1.000000
  153       -2.042020   1.000000
  154       -1.994123   1.000001
  155       -1.970661   1.000003
  156       -1.944232   1.000008
  157       -1.902028   1.000030
  158       -1.899966   1.000032
  159       -1.825162   1.000257
  160       -1.804460   1.000434
  161       -1.752699   1.001445
  162       -1.724297   1.002617
  163       -1.674295   1.006604
  164       -1.592750   1.020771
  165       -1.513658   1.035326
  166       -1.490261   1.034144
  167       -1.430338   0.999140
  168       -1.417793   0.983447
  169       -1.061441  -0.025788
  170       -0.867339  -0.008605
  171       -0.764421  -0.001202
  172       -0.615155  -0.000023
  173       -0.395456  -0.000000
  174       -0.357161  -0.000000
  175       -0.252580  -0.000000
  176       -0.208278  -0.000000
  177       -0.137416  -0.000000
  178       -0.005994  -0.000000
  179        0.002823  -0.000000
  180        0.107507  -0.000000
  181        0.162035  -0.000000
  182        0.253862  -0.000000
  183        0.279739  -0.000000
  184        0.344216  -0.000000
  185        0.363295  -0.000000
  186        0.412847  -0.000000
  187        0.447922  -0.000000
  188        0.483968  -0.000000
  189        0.530459  -0.000000
  190        0.615754  -0.000000
  191        0.641137  -0.000000
  192        0.695566  -0.000000
  193        0.761829  -0.000000
  194        0.798098  -0.000000
  195        0.837297  -0.000000
  196        0.903323  -0.000000
  197        0.941983  -0.000000
  198        0.964551  -0.000000
  199        0.991726  -0.000000
  200        1.035195  -0.000000
  201        1.079753  -0.000000
  202        1.140936  -0.000000
  203        1.164039  -0.000000
  204        1.232680  -0.000000
  205        1.246669  -0.000000
  206        1.282636  -0.000000
  207        1.377538  -0.000000
  208        1.413999  -0.000000
  209        1.438609  -0.000000
  210        1.467324  -0.000000
  211        1.523889  -0.000000
  212        1.580538  -0.000000
  213        1.649477  -0.000000
  214        1.667753  -0.000000
  215        1.711645  -0.000000
  216        1.748987  -0.000000
  217        1.784892  -0.000000
  218        1.843734  -0.000000
  219        1.861782  -0.000000
  220        1.895091  -0.000000
  221        1.992098  -0.000000
  222        2.035270  -0.000000
  223        2.059966  -0.000000
  224        2.135625  -0.000000
  225        2.141459  -0.000000
  226        2.193818  -0.000000
  227        2.237299  -0.000000
  228        2.365787  -0.000000
  229        2.413551  -0.000000
  230        2.436476  -0.000000
  231        2.504220  -0.000000
  232        2.532090  -0.000000
  233        2.536324  -0.000000
  234        2.557473  -0.000000
  235        2.612458  -0.000000
  236        2.648481  -0.000000
  237        2.730036  -0.000000
  238        2.803664  -0.000000
  239        2.862701  -0.000000
  240        2.980295  -0.000000
  241        3.332838  -0.000000
  242        3.443044  -0.000000
  243        3.529572  -0.000000
  244        3.668951  -0.000000
  245        3.736813  -0.000000
  246        3.752113  -0.000000
  247        3.847233  -0.000000
  248        3.892085  -0.000000
  249        4.032819  -0.000000
  250        4.106635  -0.000000
  251        4.127008  -0.000000
  252        4.153520  -0.000000
  253        4.203862   0.000000
  254        4.258042   0.000000
  255        4.309323   0.000000
  256        4.361290   0.000000
 
  0.2000000E+00  0.4469893E-32  0.0000000E+00  0.5000000E-01
    1      -15.318030   1.000000
    2      -15.190740   1.000000
    3      -14.915504   1.000000
    4      -14.894232   1.000000
    5      -14.771413   1.000000
    6      -14.703248   1.000000
    7      -14.591631   1.000000
    8      -14.463023   1.000000
    9      -14.374938   1.000000
   10      -14.305719   1.000000
   11      -14.255100   1.000000
   12      -14.213231   1.000000
   13      -14.142218   1.000000
   14      -14.100043   1.000000
   15      -14.051151   1.000000
   16      -14.018703   1.000000
   17      -13.971146   1.000000
   18      -13.935327   1.000000
   19      -13.896326   1.000000
   20      -13.871454   1.000000
   21      -13.816772   1.000000
   22      -13.770676   1.000000
   23      -13.716902   1.000000
   24      -13.687342   1.000000
   25      -13.635453   1.000000
   26      -13.581271   1.000000
   27      -13.432889   1.000000
   28      -13.351777   1.000000
   29      -13.342302   1.000000
   30      -13.211168   1.000000
   31      -13.125445   1.000000
   32      -13.051940   1.000000
   33      -12.973474   1.000000
   34      -12.829736   1.000000
   35      -12.708943   1.000000
   36      -12.432996   1.000000
   37      -10.610228   1.000000
   38      -10.568612   1.000000
   39      -10.498931   1.000000
   40      -10.470927   1.000000
   41      -10.343575   1.000000
   42      -10.320957   1.000000
   43      -10.291403   1.000000
   44      -10.250615   1.000000
   45      -10.135371   1.000000
   46      -10.118135   1.000000
   47      -10.066098   1.000000
   48      -10.030876   1.000000
   49       -9.984671   1.000000
   50       -9.893699   1.000000
   51       -9.841191   1.000000
   52       -9.788355   1.000000
   53       -9.567642   1.000000
   54       -9.507388   1.000000
   55       -9.431689   1.000000
   56       -9.318182   1.000000
   57       -9.079711   1.000000
   58       -9.028373   1.000000
   59       -8.848522   1.000000
   60       -8.674152   1.000000
   61       -6.278614   1.000000
   62       -6.168865   1.000000
   63       -6.137858   1.000000
   64       -6.001176   1.000000
   65       -5.942585   1.000000
   66       -5.789584   1.000000
   67       -5.719215   1.000000
   68       -5.651529   1.000000
   69       -5.628669   1.000000
   70       -5.602228   1.000000
   71       -5.520404   1.000000
   72       -5.495046   1.000000
   73       -5.452790   1.000000
   74       -5.377459   1.000000
   75       -5.285459   1.000000
   76       -5.232767   1.000000
   77       -5.190215   1.000000
   78       -5.111830   1.000000
   79       -5.066907   1.000000
   80       -5.047360   1.000000
   81       -4.988251   1.000000
   82       -4.929446   1.000000
   83       -4.884915   1.000000
   84       -4.839906   1.000000
   85       -4.783942   1.000000
   86       -4.750450   1.000000
   87       -4.713469   1.000000
   88       -4.658229   1.000000
   89       -4.609346   1.000000
   90       -4.575579   1.000000
   91       -4.552780   1.000000
   92       -4.522949   1.000000
   93       -4.496600   1.000000
   94       -4.457698   1.000000
   95       -4.396629   1.000000
   96       -4.349528   1.000000
   97       -4.333906   1.000000
   98       -4.297697   1.000000
   99       -4.261286   1.000000
  100       -4.236355   1.000000
  101       -4.194321   1.000000
  102       -4.121256   1.000000
  103       -4.109915   1.000000
  104       -4.067809   1.000000
  105       -4.006079   1.000000
  106       -3.976094   1.000000
  107       -3.937092   1.000000
  108       -3.916913   1.000000
  109       -3.878029   1.000000
  110       -3.833076   1.000000
  111       -3.801390   1.000000
  112       -3.744527   1.000000
  113       -3.705521   1.000000
  114       -3.687931   1.000000
  115       -3.663708   1.000000
  116       -3.614656   1.000000
  117       -3.582072   1.000000
  118       -3.515588   1.000000
  119       -3.489558   1.000000
  120       -3.476592   1.000000
  121       -3.405359   1.000000
  122       -3.369424   1.000000
  123       -3.318346   1.000000
  124       -3.268231   1.000000
  125       -3.199393   1.000000
  126       -3.166982   1.000000
  127       -3.067687   1.000000
  128       -2.986281   1.000000
  129       -2.965667   1.000000
  130       -2.907486   1.000000
  131       -2.850651   1.000000
  132       -2.817447   1.000000
  133       -2.765473   1.000000
  134       -2.729233   1.000000
  135       -2.703294   1.000000
  136       -2.651692   1.000000
  137       -2.618078   1.000000
  138       -2.576379   1.000000
  139       -2.521229   1.000000
  140       -2.488453   1.000000
  141       -2.456875   1.000000
  142       -2.426921   1.000000
  143       -2.399975   1.000000
  144       -2.371759   1.000000
  145       -2.285045   1.000000
  146       -2.249382   1.000000
  147       -2.219821   1.000000
  148       -2.197526   1.000000
  149       -2.169294   1.000000
  150       -2.135713   1.000000
  151       -2.121175   1.000000
  152       -2.071969   1.000000
  153       -2.013420   1.000001
  154       -1.988039   1.000002
  155       -1.969304   1.000003
  156       -1.938836   1.000010
  157       -1.894655   1.000037
  158       -1.878580   1.000060
  159       -1.845654   1.000149
  160       -1.788706   1.000636
  161       -1.759447   1.001246
  162       -1.719191   1.002897
  163       -1.671271   1.006948
  164       -1.615377   1.015886
  165       -1.520418   1.034886
  166       -1.497376   1.035019
  167       -1.438307   1.007369
  168       -1.368072   0.884390
  169       -1.048329  -0.031079
  170       -0.861969  -0.007896
  171       -0.752390  -0.000916
  172       -0.616988  -0.000025
  173       -0.426732  -0.000000
  174       -0.353191  -0.000000
  175       -0.298748  -0.000000
  176       -0.140217  -0.000000
  177       -0.112900  -0.000000
  178        0.005215  -0.000000
  179        0.038457  -0.000000
  180        0.139488  -0.000000
  181        0.162318  -0.000000
  182        0.225866  -0.000000
  183        0.295494  -0.000000
  184        0.333474  -0.000000
  185        0.354516  -0.000000
  186        0.388202  -0.000000
  187        0.480217  -0.000000
  188        0.510672  -0.000000
  189        0.576948  -0.000000
  190        0.645213  -0.000000
  191        0.675422  -0.000000
  192        0.724072  -0.000000
  193        0.769111  -0.000000
  194        0.785140  -0.000000
  195        0.824154  -0.000000
  196        0.869317  -0.000000
  197        0.914103  -0.000000
  198        0.962760  -0.000000
  199        1.009581  -0.000000
  200        1.019630  -0.000000
  201        1.095649  -0.000000
  202        1.129498  -0.000000
  203        1.161743  -0.000000
  204        1.230299  -0.000000
  205        1.242828  -0.000000
  206        1.289543  -0.000000
  207        1.333873  -0.000000
  208        1.376443  -0.000000
  209        1.408643  -0.000000
  210        1.485674  -0.000000
  211        1.501304  -0.000000
  212        1.527055  -0.000000
  213        1.586520  -0.000000
  214        1.612100  -0.000000
  215        1.707430  -0.000000
  216        1.735388  -0.000000
  217        1.805763  -0.000000
  218        1.863256  -0.000000
  219        1.882284  -0.000000
  220        1.962848  -0.000000
  221        1.996963  -0.000000
  222        2.030869  -0.000000
  223        2.069135  -0.000000
  224        2.121696  -0.000000
  225        2.143648  -0.000000
  226        2.164044  -0.000000
  227        2.238598  -0.000000
  228        2.272051  -0.000000
  229        2.303088  -0.000000
  230        2.382553  -0.000000
  231        2.445568  -0.000000
  232        2.518770  -0.000000
  233        2.535365  -0.000000
  234        2.574133  -0.000000
  235        2.626034  -0.000000
  236        2.708653  -0.000000
  237        2.771774  -0.000000
  238        2.836775  -0.000000
  239        2.880665  -0.000000
  240        3.036493  -0.000000
  241        3.369452  -0.000000
  242        3.468709  -0.000000
  243        3.549249  -0.000000
  244        3.637385  -0.000000
  245        3.730093  -0.000000
  246        3.743422  -0.000000
  247        3.842792  -0.000000
  248        3.890539  -0.000000
  249        3.997931  -0.000000
  250        4.039706  -0.000000
  251        4.091161  -0.000000
  252        4.153734  -0.000000
  253        4.225064   0.000000
  254        4.271249   0.000000
  255        4.311459   0.000000
  256        4.339724   0.000000
 
  0.4000000E+00  0.8939786E-32  0.0000000E+00  0.5000000E-01
    1      -15.278801   1.000000
    2      -15.211120   1.000000
    3      -14.949452   1.000000
    4      -14.899264   1.000000
    5      -14.811525   1.000000
    6      -14.692204   1.000000
    7      -14.618749   1.000000
    8      -14.407330   1.000000
    9      -14.351722   1.000000
   10      -14.283027   1.000000
   11      -14.230080   1.000000
   12      -14.192715   1.000000
   13      -14.152007   1.000000
   14      -14.108906   1.000000
   15      -14.059827   1.000000
   16      -14.016781   1.000000
   17      -13.982935   1.000000
   18      -13.946817   1.000000
   19      -13.911793   1.000000
   20      -13.872944   1.000000
   21      -13.811287   1.000000
   22      -13.758860   1.000000
   23      -13.714975   1.000000
   24      -13.706763   1.000000
   25      -13.645455   1.000000
   26      -13.574481   1.000000
   27      -13.427598   1.000000
   28      -13.351465   1.000000
   29      -13.347564   1.000000
   30      -13.213296   1.000000
   31      -13.122700   1.000000
   32      -13.054456   1.000000
   33      -12.973848   1.000000
   34      -12.827679   1.000000
   35      -12.709123   1.000000
   36      -12.431286   1.000000
   37      -10.613386   1.000000
   38      -10.555892   1.000000
   39      -10.498768   1.000000
   40      -10.439148   1.000000
   41      -10.365646   1.000000
   42      -10.310172   1.000000
   43      -10.279912   1.000000
   44      -10.246440   1.000000
   45      -10.189497   1.000000
   46      -10.140894   1.000000
   47      -10.109183   1.000000
   48      -10.076033   1.000000
   49      -10.008100   1.000000
   50       -9.941813   1.000000
   51       -9.877989   1.000000
   52       -9.821272   1.000000
   53       -9.452120   1.000000
   54       -9.362874   1.000000
   55       -9.296137   1.000000
   56       -9.212010   1.000000
   57       -9.095837   1.000000
   58       -9.017872   1.000000
   59       -8.954946   1.000000
   60       -8.805509   1.000000
   61       -6.311397   1.000000
   62       -6.200043   1.000000
   63       -6.168224   1.000000
   64       -6.007214   1.000000
   65       -5.868120   1.000000
   66       -5.773562   1.000000
   67       -5.732016   1.000000
   68       -5.626483   1.000000
   69       -5.593118   1.000000
   70       -5.572369   1.000000
   71       -5.549998   1.000000
   72       -5.504146   1.000000
   73       -5.425843   1.000000
   74       -5.410830   1.000000
   75       -5.294807   1.000000
   76       -5.247626   1.000000
   77       -5.162059   1.000000
   78       -5.106663   1.000000
   79       -5.072953   1.000000
   80       -5.054866   1.000000
   81       -4.981186   1.000000
   82       -4.948574   1.000000
   83       -4.907715   1.000000
   84       -4.815350   1.000000
   85       -4.801038   1.000000
   86       -4.749820   1.000000
   87       -4.714413   1.000000
   88       -4.677089   1.000000
   89       -4.623268   1.000000
   90       -4.567105   1.000000
   91       -4.548693   1.000000
   92       -4.473291   1.000000
   93       -4.455054   1.000000
   94       -4.425361   1.000000
   95       -4.380143   1.000000
   96       -4.352029   1.000000
   97       -4.309133   1.000000
   98       -4.267894   1.000000
   99       -4.223949   1.000000
  100       -4.196617   1.000000
  101       -4.160775   1.000000
  102       -4.155041   1.000000
  103       -4.108238   1.000000
  104       -4.097751   1.000000
  105       -4.046259   1.000000
  106       -4.005387   1.000000
  107       -3.982724   1.000000
  108       -3.931066   1.000000
  109       -3.896080   1.000000
  110       -3.869320   1.000000
  111       -3.808024   1.000000
  112       -3.754120   1.000000
  113       -3.724903   1.000000
  114       -3.692892   1.000000
  115       -3.647846   1.000000
  116       -3.596858   1.000000
  117       -3.548872   1.000000
  118       -3.505393   1.000000
  119       -3.472575   1.000000
  120       -3.460773   1.000000
  121       -3.422480   1.000000
  122       -3.371021   1.000000
  123       -3.337914   1.000000
  124       -3.306021   1.000000
  125       -3.270229   1.000000
  126       -3.225525   1.000000
  127       -3.121352   1.000000
  128       -3.031256   1.000000
  129       -2.977813   1.000000
  130       -2.933011   1.000000
  131       -2.866085   1.000000
  132       -2.814449   1.000000
  133       -2.752080   1.000000
  134       -2.746844   1.000000
  135       -2.686749   1.000000
  136       -2.661996   1.000000
  137       -2.622763   1.000000
  138       -2.584259   1.000000
  139       -2.502568   1.000000
  140       -2.494966   1.000000
  141       -2.477113   1.000000
  142       -2.455936   1.000000
  143       -2.384918   1.000000
  144       -2.344970   1.000000
  145       -2.301607   1.000000
  146       -2.267198   1.000000
  147       -2.217707   1.000000
  148       -2.191959   1.000000
  149       -2.130666   1.000000
  150       -2.093763   1.000000
  151       -2.071505   1.000000
  152       -2.028465   1.000000
  153       -1.995601   1.000001
  154       -1.968580   1.000004
  155       -1.943566   1.000008
  156       -1.912387   1.000022
  157       -1.903112   1.000029
  158       -1.878019   1.000061
  159       -1.847141   1.000143
  160       -1.797052   1.000520
  161       -1.782195   1.000742
  162       -1.701764   1.004049
  163       -1.654742   1.009078
  164       -1.574309   1.025016
  165       -1.518797   1.035017
  166       -1.505923   1.035446
  167       -1.422887   0.990236
  168       -1.366516   0.880292
  169       -1.029946  -0.034840
  170       -0.838442  -0.005295
  171       -0.739151  -0.000673
  172       -0.621608  -0.000028
  173       -0.428749  -0.000000
  174       -0.351734  -0.000000
  175       -0.310312  -0.000000
  176       -0.130127  -0.000000
  177       -0.102462  -0.000000
  178        0.053388  -0.000000
  179        0.073477  -0.000000
  180        0.141495  -0.000000
  181        0.170593  -0.000000
  182        0.214647  -0.000000
  183        0.261038  -0.000000
  184        0.320591  -0.000000
  185        0.415424  -0.000000
  186        0.453107  -0.000000
  187        0.516499  -0.000000
  188        0.538024  -0.000000
  189        0.572023  -0.000000
  190        0.640240  -0.000000
  191        0.699321  -0.000000
  192        0.743062  -0.000000
  193        0.777110  -0.000000
  194        0.785279  -0.000000
  195        0.831167  -0.000000
  196        0.874370  -0.000000
  197        0.897929  -0.000000
  198        0.962715  -0.000000
  199        0.994661  -0.000000
  200        1.039902  -0.000000
  201        1.082967  -0.000000
  202        1.103573  -0.000000
  203        1.165230  -0.000000
  204        1.223960  -0.000000
  205        1.247912  -0.000000
  206        1.288799  -0.000000
  207        1.317737  -0.000000
  208        1.356479  -0.000000
  209        1.375946  -0.000000
  210        1.434581  -0.000000
  211        1.446779  -0.000000
  212        1.518662  -0.000000
  213        1.569700  -0.000000
  214        1.629701  -0.000000
  215        1.671235  -0.000000
  216        1.716720  -0.000000
  217        1.759156  -0.000000
  218        1.824382  -0.000000
  219        1.857838  -0.000000
  220        1.916035  -0.000000
  221        1.976538  -0.000000
  222        2.026210  -0.000000
  223        2.052083  -0.000000
  224        2.078215  -0.000000
  225        2.133076  -0.000000
  226        2.170172  -0.000000
  227        2.218833  -0.000000
  228        2.227567  -0.000000
  229        2.289044  -0.000000
  230        2.356735  -0.000000
  231        2.399022  -0.000000
  232        2.431663  -0.000000
  233        2.545795  -0.000000
  234        2.602884  -0.000000
  235        2.649863  -0.000000
  236        2.723897  -0.000000
  237        2.791587  -0.000000
  238        2.873998  -0.000000
  239        2.916679  -0.000000
  240        3.118779  -0.000000
  241        3.433801  -0.000000
  242        3.519048  -0.000000
  243        3.563066  -0.000000
  244        3.628729  -0.000000
  245        3.711092  -0.000000
  246        3.759171  -0.000000
  247        3.824824  -0.000000
  248        3.845924  -0.000000
  249        3.885528  -0.000000
  250        3.935040  -0.000000
  251        4.144788  -0.000000
  252        4.188987  -0.000000
  253        4.217840   0.000000
  254        4.272806   0.000000
  255        4.309499   0.000000
  256        4.356617   0.000000
 
  0.0000000E+00  0.2500000E+00  0.0000000E+00  0.5000000E-01
    1      -15.319676   1.000000
    2      -15.209795   1.000000
    3      -14.893099   1.000000
    4      -14.882715   1.000000
    5      -14.731503   1.000000
    6      -14.694105   1.000000
    7      -14.608960   1.000000
    8      -14.520658   1.000000
    9      -14.363146   1.000000
   10      -14.319204   1.000000
   11      -14.264878   1.000000
   12      -14.214139   1.000000
   13      -14.141006   1.000000
   14      -14.077142   1.000000
   15      -14.045501   1.000000
   16      -14.024112   1.000000
   17      -13.981490   1.000000
   18      -13.947909   1.000000
   19      -13.898087   1.000000
   20      -13.867010   1.000000
   21      -13.796379   1.000000
   22      -13.772020   1.000000
   23      -13.717499   1.000000
   24      -13.680848   1.000000
   25      -13.632206   1.000000
   26      -13.588646   1.000000
   27      -13.437458   1.000000
   28      -13.353257   1.000000
   29      -13.338361   1.000000
   30      -13.209939   1.000000
   31      -13.125993   1.000000
   32      -13.050605   1.000000
   33      -12.973290   1.000000
   34      -12.831218   1.000000
   35      -12.708936   1.000000
   36      -12.433930   1.000000
   37      -10.608446   1.000000
   38      -10.575248   1.000000
   39      -10.510876   1.000000
   40      -10.474247   1.000000
   41      -10.350530   1.000000
   42      -10.334559   1.000000
   43      -10.257146   1.000000
   44      -10.210650   1.000000
   45      -10.182966   1.000000
   46      -10.153104   1.000000
   47      -10.005947   1.000000
   48       -9.977141   1.000000
   49       -9.924711   1.000000
   50       -9.874074   1.000000
   51       -9.821597   1.000000
   52       -9.693548   1.000000
   53       -9.666672   1.000000
   54       -9.539291   1.000000
   55       -9.532125   1.000000
   56       -9.498587   1.000000
   57       -9.055712   1.000000
   58       -9.002016   1.000000
   59       -8.773786   1.000000
   60       -8.638833   1.000000
   61       -6.267703   1.000000
   62       -6.167486   1.000000
   63       -6.099062   1.000000
   64       -5.974921   1.000000
   65       -5.947157   1.000000
   66       -5.820830   1.000000
   67       -5.711261   1.000000
   68       -5.678016   1.000000
   69       -5.650232   1.000000
   70       -5.591958   1.000000
   71       -5.535876   1.000000
   72       -5.498881   1.000000
   73       -5.430742   1.000000
   74       -5.319477   1.000000
   75       -5.297221   1.000000
   76       -5.263628   1.000000
   77       -5.216194   1.000000
   78       -5.159972   1.000000
   79       -5.090448   1.000000
   80       -4.997720   1.000000
   81       -4.969041   1.000000
   82       -4.909885   1.000000
   83       -4.894465   1.000000
   84       -4.854785   1.000000
   85       -4.814294   1.000000
   86       -4.747726   1.000000
   87       -4.702694   1.000000
   88       -4.681056   1.000000
   89       -4.622550   1.000000
   90       -4.595102   1.000000
   91       -4.562869   1.000000
   92       -4.551754   1.000000
   93       -4.527303   1.000000
   94       -4.456933   1.000000
   95       -4.430994   1.000000
   96       -4.387231   1.000000
   97       -4.351816   1.000000
   98       -4.315583   1.000000
   99       -4.264794   1.000000
  100       -4.247458   1.000000
  101       -4.167131   1.000000
  102       -4.126878   1.000000
  103       -4.098897   1.000000
  104       -4.064034   1.000000
  105       -4.003181   1.000000
  106       -3.967162   1.000000
  107       -3.931568   1.000000
  108       -3.903564   1.000000
  109       -3.856585   1.000000
  110       -3.833173   1.000000
  111       -3.774738   1.000000
  112       -3.746397   1.000000
  113       -3.703442   1.000000
  114       -3.657559   1.000000
  115       -3.646175   1.000000
  116       -3.610612   1.000000
  117       -3.539357   1.000000
  118       -3.499172   1.000000
  119       -3.461750   1.000000
  120       -3.440850   1.000000
  121       -3.404648   1.000000
  122       -3.351232   1.000000
  123       -3.318902   1.000000
  124       -3.250352   1.000000
  125       -3.172005   1.000000
  126       -3.088791   1.000000
  127       -3.031795   1.000000