Tetradymite Slab                        
           1
    11.541877    0.000000   -4.028518
    -0.000000   12.836956   -4.028518
     0.000000    0.000000   28.199624
   Sb   Se
  24  36
Direct configuration=     1
   0.03641712  0.13800016  0.06063104
   0.96358288  0.86199984  0.08222610
   0.53641712  0.36199984  0.09263099
   0.46358288  0.63800016  0.05022615
   0.33168058  0.03561961  0.01675717
   0.66831942  0.96438039  0.12609997
   0.83168058  0.46438039  0.07800871
   0.16831942  0.53561961  0.06484843
   0.03641712  0.13800016  0.20348818
   0.96358288  0.86199984  0.22508325
   0.53641712  0.36199984  0.23548814
   0.46358288  0.63800016  0.19308329
   0.33168058  0.03561961  0.15961431
   0.66831942  0.96438039  0.26895712
   0.83168058  0.46438039  0.22086585
   0.16831942  0.53561961  0.20770558
   0.03641712  0.13800016  0.34634533
   0.96358288  0.86199984  0.36794039
   0.53641712  0.36199984  0.37834528
   0.46358288  0.63800016  0.33594043
   0.33168058  0.03561961  0.30247146
   0.66831942  0.96438039  0.41181426
   0.83168058  0.46438039  0.36372300
   0.16831942  0.53561961  0.35056272
   0.13291546  0.95294821  0.04798052
   0.86708454  0.04705179  0.09487662
   0.63291546  0.54705179  0.13285247
   0.36708454  0.45294821  0.01000468
   0.19089847  0.20414490  0.02072048
   0.80910153  0.79585510  0.12213666
   0.69089847  0.29585510  0.03382194
   0.30910153  0.70414490  0.10903520
   0.04754547  0.62758864  0.13216202
   0.95245453  0.37241136  0.01069513
   0.54754547  0.87241136  0.02427955
   0.45245453  0.12758864  0.11857760
   0.13291546  0.95294821  0.19083767
   0.86708454  0.04705179  0.23773376
   0.63291546  0.54705179  0.27570961
   0.36708454  0.45294821  0.15286182
   0.19089847  0.20414490  0.16357762
   0.80910153  0.79585510  0.26499380
   0.69089847  0.29585510  0.17667908
   0.30910153  0.70414490  0.25189235
   0.04754547  0.62758864  0.27501916
   0.95245453  0.37241136  0.15355227
   0.54754547  0.87241136  0.16713669
   0.45245453  0.12758864  0.26143474
   0.13291546  0.95294821  0.33369481
   0.86708454  0.04705179  0.38059090
   0.63291546  0.54705179  0.41856675
   0.36708454  0.45294821  0.29571896
   0.19089847  0.20414490  0.30643477
   0.80910153  0.79585510  0.40785095
   0.69089847  0.29585510  0.31953622
   0.30910153  0.70414490  0.39474949
   0.04754547  0.62758864  0.41787630
   0.95245453  0.37241136  0.29640941
   0.54754547  0.87241136  0.30999383
   0.45245453  0.12758864  0.40429188
Direct configuration=     2
   0.03641712  0.13800016  0.06063104
   0.96358288  0.86199984  0.08222610
   0.53641712  0.36199984  0.09263099
   0.46358288  0.63800016  0.05022615
   0.33168058  0.03561961  0.01675717
   0.66831942  0.96438039  0.12609997
   0.83168058  0.46438039  0.07800871
   0.16831942  0.53561961  0.06484843
   0.03641712  0.13800016  0.20348818
   0.96358288  0.86199984  0.22508325
   0.53641712  0.36199984  0.23548814
   0.46358288  0.63800016  0.19308329
   0.33168058  0.03561961  0.15961431
   0.66831942  0.96438039  0.26895712
   0.83168058  0.46438039  0.22086585
   0.16831942  0.53561961  0.20770558
   0.03641712  0.13800016  0.34634533
   0.96358288  0.86199984  0.36794039
   0.53641712  0.36199984  0.37834528
   0.46358288  0.63800016  0.33594043
   0.33592203  0.03704373  0.30507984
   0.66831942  0.96438039  0.41181426
   0.83168058  0.46438039  0.36372300
   0.16831942  0.53561961  0.35056272
   0.13291546  0.95294821  0.04798052
   0.86708454  0.04705179  0.09487662
   0.63291546  0.54705179  0.13285247
   0.36708454  0.45294821  0.01000468
   0.19089847  0.20414490  0.02072048
   0.80910153  0.79585510  0.12213666
   0.69089847  0.29585510  0.03382194
   0.30910153  0.70414490  0.10903520
   0.04754547  0.62758864  0.13216202
   0.95245453  0.37241136  0.01069513
   0.54754547  0.87241136  0.02427955
   0.45245453  0.12758864  0.11857760
   0.13143436  0.95030433  0.18950105
   0.86708454  0.04705179  0.23773376
   0.63291546  0.54705179  0.27570961
   0.36532142  0.45332044  0.15257990
   0.18937164  0.20432286  0.16322019
   0.80910153  0.79585510  0.26499380
   0.69034443  0.29605873  0.17662569
   0.30965566  0.70394112  0.25194596
   0.04735628  0.62643126  0.27463574
   0.95264384  0.37356900  0.15393566
   0.54799270  0.87232349  0.16740589
   0.45200738  0.12767642  0.26116559
   0.13189551  0.95459948  0.33431119
   0.86553092  0.04717012  0.38111030
   0.63206585  0.54438065  0.41803846
   0.36850317  0.45061237  0.29582287
   0.18972479  0.20425892  0.30603082
   0.80902340  0.79777404  0.40798827
   0.68916202  0.29417398  0.31966879
   0.30994151  0.70153043  0.39372806
   0.04717097  0.62485566  0.41606208
   0.95245453  0.37241136  0.29640941
   0.54754547  0.87241136  0.30999383
   0.45151358  0.12541349  0.40232593
Direct configuration=     3
   0.03641712  0.13800016  0.06063104
   0.96358288  0.86199984  0.08222610
   0.53641712  0.36199984  0.09263099
   0.46358288  0.63800016  0.05022615
   0.33168058  0.03561961  0.01675717
   0.66831942  0.96438039  0.12609997
   0.83168058  0.46438039  0.07800871
   0.16831942  0.53561961  0.06484843
   0.03641712  0.13800016  0.20348818
   0.96358288  0.86199984  0.22508325
   0.53641712  0.36199984  0.23548814
   0.46358288  0.63800016  0.19308329
   0.33168058  0.03561961  0.15961431
   0.66831942  0.96438039  0.26895712
   0.83168058  0.46438039  0.22086585
   0.16831942  0.53561961  0.20770558
   0.03641712  0.13800016  0.34634533
   0.96358288  0.86199984  0.36794039
   0.53641712  0.36199984  0.37834528
   0.46358288  0.63800016  0.33594043
   0.34343494  0.03956628  0.30970009
   0.66831942  0.96438039  0.41181426
   0.83168058  0.46438039  0.36372300
   0.16831942  0.53561961  0.35056272
   0.13291546  0.95294821  0.04798052
   0.86708454  0.04705179  0.09487662
   0.63291546  0.54705179  0.13285247
   0.36708454  0.45294821  0.01000468
   0.19089847  0.20414490  0.02072048
   0.80910153  0.79585510  0.12213666
   0.69089847  0.29585510  0.03382194
   0.30910153  0.70414490  0.10903520
   0.04754547  0.62758864  0.13216202
   0.95245453  0.37241136  0.01069513
   0.54754547  0.87241136  0.02427955
   0.45245453  0.12758864  0.11857760
   0.12881089  0.94562122  0.18713349
   0.86708454  0.04705179  0.23773376
   0.63291546  0.54705179  0.27570961
   0.36219840  0.45397978  0.15208053
   0.18666716  0.20463807  0.16258707
   0.80910153  0.79585510  0.26499380
   0.68936306  0.29641943  0.17653112
   0.31063719  0.70358015  0.25204093
   0.04702117  0.62438120  0.27395658
   0.95297916  0.37561952  0.15461477
   0.54878486  0.87216785  0.16788272
   0.45121535  0.12783190  0.26068884
   0.13008885  0.95752439  0.33540299
   0.86277898  0.04737971  0.38203030
   0.63056093  0.53964924  0.41710269
   0.37101599  0.44647490  0.29600691
   0.18764584  0.20446088  0.30531530
   0.80888500  0.80117306  0.40823150
   0.68608623  0.29119622  0.31990359
   0.31142938  0.69689940  0.39191880
   0.04650760  0.62001474  0.41284854
   0.95245453  0.37241136  0.29640941
   0.54754547  0.87241136  0.30999383
   0.44984688  0.12156064  0.39884365
Direct configuration=     4
   0.03641712  0.13800016  0.06063104
   0.96358288  0.86199984  0.08222610
   0.53641712  0.36199984  0.09263099
   0.46358288  0.63800016  0.05022615
   0.33168058  0.03561961  0.01675717
   0.66831942  0.96438039  0.12609997
   0.83168058  0.46438039  0.07800871
   0.16831942  0.53561961  0.06484843
   0.03641712  0.13800016  0.20348818
   0.96358288  0.86199984  0.22508325
   0.53641712  0.36199984  0.23548814
   0.46358288  0.63800016  0.19308329
   0.33168058  0.03561961  0.15961431
   0.66831942  0.96438039  0.26895712
   0.83168058  0.46438039  0.22086585
   0.16831942  0.53561961  0.20770558
   0.03641712  0.13800016  0.34634533
   0.96358288  0.86199984  0.36794039
   0.53641712  0.36199984  0.37834528
   0.46358288  0.63800016  0.33594043
   0.34469650  0.03731271  0.30918006
   0.66831942  0.96438039  0.41181426
   0.83168058  0.46438039  0.36372300
   0.16831942  0.53561961  0.35056272
   0.13291546  0.95294821  0.04798052
   0.86708454  0.04705179  0.09487662
   0.63291546  0.54705179  0.13285247
   0.36708454  0.45294821  0.01000468
   0.19089847  0.20414490  0.02072048
   0.80910153  0.79585510  0.12213666
   0.69089847  0.29585510  0.03382194
   0.30910153  0.70414490  0.10903520
   0.04754547  0.62758864  0.13216202
   0.95245453  0.37241136  0.01069513
   0.54754547  0.87241136  0.02427955
   0.45245453  0.12758864  0.11857760
   0.12546920  0.94179933  0.18469898
   0.86708454  0.04705179  0.23773376
   0.63291546  0.54705179  0.27570961
   0.35930659  0.45471019  0.15142477
   0.18469953  0.20462193  0.16207454
   0.80910153  0.79585510  0.26499380
   0.68891004  0.29665476  0.17636867
   0.31159370  0.70319232  0.25223612
   0.04620336  0.62282302  0.27329147
   0.95356252  0.37728893  0.15510865
   0.54923988  0.87184849  0.16817072
   0.45060232  0.12817674  0.26014514
   0.12876374  0.95913643  0.33657985
   0.85967444  0.04705661  0.38297803
   0.63048564  0.53721557  0.41689916
   0.37397273  0.44312826  0.29627871
   0.18534297  0.20454435  0.30466316
   0.80891581  0.80416337  0.40867961
   0.68390906  0.28893762  0.32002656
   0.31332211  0.69369900  0.39068115
   0.04456332  0.61595142  0.41020175
   0.95245453  0.37241136  0.29640941
   0.54754547  0.87241136  0.30999383
   0.45359008  0.12267436  0.40037167
Direct configuration=     5
   0.03641712  0.13800016  0.06063104
   0.96358288  0.86199984  0.08222610
   0.53641712  0.36199984  0.09263099
   0.46358288  0.63800016  0.05022615
   0.33168058  0.03561961  0.01675717
   0.66831942  0.96438039  0.12609997
   0.83168058  0.46438039  0.07800871
   0.16831942  0.53561961  0.06484843
   0.03641712  0.13800016  0.20348818
   0.96358288  0.86199984  0.22508325
   0.53641712  0.36199984  0.23548814
   0.46358288  0.63800016  0.19308329
   0.33168058  0.03561961  0.15961431
   0.66831942  0.96438039  0.26895712
   0.83168058  0.46438039  0.22086585
   0.16831942  0.53561961  0.20770558
   0.03641712  0.13800016  0.34634533
   0.96358288  0.86199984  0.36794039
   0.53641712  0.36199984  0.37834528
   0.46358288  0.63800016  0.33594043
   0.34562921  0.03564658  0.30879559
   0.66831942  0.96438039  0.41181426
   0.83168058  0.46438039  0.36372300
   0.16831942  0.53561961  0.35056272
   0.13291546  0.95294821  0.04798052
   0.86708454  0.04705179  0.09487662
   0.63291546  0.54705179  0.13285247
   0.36708454  0.45294821  0.01000468
   0.19089847  0.20414490  0.02072048
   0.80910153  0.79585510  0.12213666
   0.69089847  0.29585510  0.03382194
   0.30910153  0.70414490  0.10903520
   0.04754547  0.62758864  0.13216202
   0.95245453  0.37241136  0.01069513
   0.54754547  0.87241136  0.02427955
   0.45245453  0.12758864  0.11857760
   0.12299859  0.93897368  0.18289907
   0.86708454  0.04705179  0.23773376
   0.63291546  0.54705179  0.27570961
   0.35716858  0.45525020  0.15093994
   0.18324480  0.20461000  0.16169561
   0.80910153  0.79585510  0.26499380
   0.68857512  0.29682874  0.17624856
   0.31230088  0.70290559  0.25238043
   0.04559873  0.62167100  0.27279973
   0.95399382  0.37852318  0.15547379
   0.54957629  0.87161239  0.16838365
   0.45014909  0.12843169  0.25974317
   0.12778404  0.96032827  0.33744993
   0.85737915  0.04681772  0.38367871
   0.63042997  0.53541628  0.41674868
   0.37615874  0.44065399  0.29647965
   0.18364038  0.20460606  0.30418101
   0.80893858  0.80637420  0.40901092
   0.68229941  0.28726776  0.32011747
   0.31472146  0.69133285  0.38976612
   0.04312584  0.61294729  0.40824489
   0.95245453  0.37241136  0.29640941
   0.54754547  0.87241136  0.30999383
   0.45635755  0.12349777  0.40150139
Direct configuration=     6
   0.03641712  0.13800016  0.06063104
   0.96358288  0.86199984  0.08222610
   0.53641712  0.36199984  0.09263099
   0.46358288  0.63800016  0.05022615
   0.33168058  0.03561961  0.01675717
   0.66831942  0.96438039  0.12609997
   0.83168058  0.46438039  0.07800871
   0.16831942  0.53561961  0.06484843
   0.03641712  0.13800016  0.20348818
   0.96358288  0.86199984  0.22508325
   0.53641712  0.36199984  0.23548814
   0.46358288  0.63800016  0.19308329
   0.33168058  0.03561961  0.15961431
   0.66831942  0.96438039  0.26895712
   0.83168058  0.46438039  0.22086585
   0.16831942  0.53561961  0.20770558
   0.03641712  0.13800016  0.34634533
   0.96358288  0.86199984  0.36794039
   0.53641712  0.36199984  0.37834528
   0.46358288  0.63800016  0.33594043
   0.34667471  0.03535856  0.30866887
   0.66831942  0.96438039  0.41181426
   0.83168058  0.46438039  0.36372300
   0.16831942  0.53561961  0.35056272
   0.13291546  0.95294821  0.04798052
   0.86708454  0.04705179  0.09487662
   0.63291546  0.54705179  0.13285247
   0.36708454  0.45294821  0.01000468
   0.19089847  0.20414490  0.02072048
   0.80910153  0.79585510  0.12213666
   0.69089847  0.29585510  0.03382194
   0.30910153  0.70414490  0.10903520
   0.04754547  0.62758864  0.13216202
   0.95245453  0.37241136  0.01069513
   0.54754547  0.87241136  0.02427955
   0.45245453  0.12758864  0.11857760
   0.12113842  0.93808739  0.18180311
   0.86708454  0.04705179  0.23773376
   0.63291546  0.54705179  0.27570961
   0.35588148  0.45575070  0.15032308
   0.18337785  0.20429322  0.16169502
   0.80910153  0.79585510  0.26499380
   0.68915636  0.29674676  0.17607670
   0.31261593  0.70278750  0.25259869
   0.04465817  0.62159395  0.27264226
   0.95468670  0.37883369  0.15547692
   0.54934789  0.87123102  0.16826300
   0.44957488  0.12854929  0.25969450
   0.12830987  0.95947033  0.33817878
   0.85532962  0.04602825  0.38413463
   0.63281123  0.53765635  0.41770686
   0.37779131  0.43998131  0.29665557
   0.18326366  0.20362816  0.30410752
   0.81022639  0.80588467  0.40942578
   0.68249980  0.28695255  0.31988087
   0.31565219  0.69188606  0.39016686
   0.03950522  0.61267105  0.40804812
   0.95245453  0.37241136  0.29640941
   0.54754547  0.87241136  0.30999383
   0.45789297  0.12398357  0.40192035
Direct configuration=     7
   0.03641712  0.13800016  0.06063104
   0.96358288  0.86199984  0.08222610
   0.53641712  0.36199984  0.09263099
   0.46358288  0.63800016  0.05022615
   0.33168058  0.03561961  0.01675717
   0.66831942  0.96438039  0.12609997
   0.83168058  0.46438039  0.07800871
   0.16831942  0.53561961  0.06484843
   0.03641712  0.13800016  0.20348818
   0.96358288  0.86199984  0.22508325
   0.53641712  0.36199984  0.23548814
   0.46358288  0.63800016  0.19308329
   0.33168058  0.03561961  0.15961431
   0.66831942  0.96438039  0.26895712
   0.83168058  0.46438039  0.22086585
   0.16831942  0.53561961  0.20770558
   0.03641712  0.13800016  0.34634533
   0.96358288  0.86199984  0.36794039
   0.53641712  0.36199984  0.37834528
   0.46358288  0.63800016  0.33594043
   0.34876959  0.03478145  0.30841498
   0.66831942  0.96438039  0.41181426
   0.83168058  0.46438039  0.36372300
   0.16831942  0.53561961  0.35056272
   0.13291546  0.95294821  0.04798052
   0.86708454  0.04705179  0.09487662
   0.63291546  0.54705179  0.13285247
   0.36708454  0.45294821  0.01000468
   0.19089847  0.20414490  0.02072048
   0.80910153  0.79585510  0.12213666
   0.69089847  0.29585510  0.03382194
   0.30910153  0.70414490  0.10903520
   0.04754547  0.62758864  0.13216202
   0.95245453  0.37241136  0.01069513
   0.54754547  0.87241136  0.02427955
   0.45245453  0.12758864  0.11857760
   0.11741120  0.93631152  0.17960714
   0.86708454  0.04705179  0.23773376
   0.63291546  0.54705179  0.27570961
   0.35330253  0.45675356  0.14908710
   0.18364445  0.20365848  0.16169384
   0.80910153  0.79585510  0.26499380
   0.69032099  0.29658251  0.17573236
   0.31324720  0.70255088  0.25303602
   0.04277357  0.62143955  0.27232673
   0.95607502  0.37945588  0.15548320
   0.54889024  0.87046688  0.16802125
   0.44842434  0.12878493  0.25959698
   0.12936347  0.95775128  0.33963916
   0.85122300  0.04444639  0.38504814
   0.63758255  0.54214476  0.41962675
   0.38106249  0.43863347  0.29700804
   0.18250883  0.20166873  0.30396025
   0.81280676  0.80490381  0.41025702
   0.68290131  0.28632097  0.31940680
   0.31751707  0.69299454  0.39096980
   0.03225063  0.61211757  0.40765384
   0.95245453  0.37241136  0.29640941
   0.54754547  0.87241136  0.30999383
   0.46096947  0.12495696  0.40275980
Direct configuration=     8
   0.03641712  0.13800016  0.06063104
   0.96358288  0.86199984  0.08222610
   0.53641712  0.36199984  0.09263099
   0.46358288  0.63800016  0.05022615
   0.33168058  0.03561961  0.01675717
   0.66831942  0.96438039  0.12609997
   0.83168058  0.46438039  0.07800871
   0.16831942  0.53561961  0.06484843
   0.03641712  0.13800016  0.20348818
   0.96358288  0.86199984  0.22508325
   0.53641712  0.36199984  0.23548814
   0.46358288  0.63800016  0.19308329
   0.33168058  0.03561961  0.15961431
   0.66831942  0.96438039  0.26895712
   0.83168058  0.46438039  0.22086585
   0.16831942  0.53561961  0.20770558
   0.03641712  0.13800016  0.34634533
   0.96358288  0.86199984  0.36794039
   0.53641712  0.36199984  0.37834528
   0.46358288  0.63800016  0.33594043
   0.35151527  0.03529422  0.30968599
   0.66831942  0.96438039  0.41181426
   0.83168058  0.46438039  0.36372300
   0.16831942  0.53561961  0.35056272
   0.13291546  0.95294821  0.04798052
   0.86708454  0.04705179  0.09487662
   0.63291546  0.54705179  0.13285247
   0.36708454  0.45294821  0.01000468
   0.19089847  0.20414490  0.02072048
   0.80910153  0.79585510  0.12213666
   0.69089847  0.29585510  0.03382194
   0.30910153  0.70414490  0.10903520
   0.04754547  0.62758864  0.13216202
   0.95245453  0.37241136  0.01069513
   0.54754547  0.87241136  0.02427955
   0.45245453  0.12758864  0.11857760
   0.11673843  0.93616153  0.17917763
   0.86708454  0.04705179  0.23773376
   0.63291546  0.54705179  0.27570961
   0.35138741  0.45739812  0.14808754
   0.18438340  0.20344033  0.16194682
   0.80910153  0.79585510  0.26499380
   0.69103783  0.29624591  0.17554548
   0.31316092  0.70254425  0.25322321
   0.04245243  0.62145855  0.27272935
   0.95687318  0.37969782  0.15543971
   0.54859788  0.87024412  0.16785882
   0.44801909  0.12948684  0.25985882
   0.12945768  0.95881765  0.34059471
   0.84791872  0.04322534  0.38552946
   0.63885741  0.54100218  0.41962672
   0.38234544  0.43867844  0.29765183
   0.18282454  0.20000598  0.30437196
   0.81399389  0.80386188  0.41079450
   0.68225251  0.28637175  0.31888243
   0.31710526  0.69337123  0.39169896
   0.02817329  0.61110020  0.40673804
   0.95245453  0.37241136  0.29640941
   0.54754547  0.87241136  0.30999383
   0.46159555  0.12480029  0.40168595
Direct configuration=     9
   0.03641712  0.13800016  0.06063104
   0.96358288  0.86199984  0.08222610
   0.53641712  0.36199984  0.09263099
   0.46358288  0.63800016  0.05022615
   0.33168058  0.03561961  0.01675717
   0.66831942  0.96438039  0.12609997
   0.83168058  0.46438039  0.07800871
   0.16831942  0.53561961  0.06484843
   0.03641712  0.13800016  0.20348818
   0.96358288  0.86199984  0.22508325
   0.53641712  0.36199984  0.23548814
   0.46358288  0.63800016  0.19308329
   0.33168058  0.03561961  0.15961431
   0.66831942  0.96438039  0.26895712
   0.83168058  0.46438039  0.22086585
   0.16831942  0.53561961  0.20770558
   0.03641712  0.13800016  0.34634533
   0.96358288  0.86199984  0.36794039
   0.53641712  0.36199984  0.37834528
   0.46358288  0.63800016  0.33594043
   0.35298256  0.03556824  0.31036521
   0.66831942  0.96438039  0.41181426
   0.83168058  0.46438039  0.36372300
   0.16831942  0.53561961  0.35056272
   0.13291546  0.95294821  0.04798052
   0.86708454  0.04705179  0.09487662
   0.63291546  0.54705179  0.13285247
   0.36708454  0.45294821  0.01000468
   0.19089847  0.20414490  0.02072048
   0.80910153  0.79585510  0.12213666
   0.69089847  0.29585510  0.03382194
   0.30910153  0.70414490  0.10903520
   0.04754547  0.62758864  0.13216202
   0.95245453  0.37241136  0.01069513
   0.54754547  0.87241136  0.02427955
   0.45245453  0.12758864  0.11857760
   0.11637891  0.93608137  0.17894810
   0.86708454  0.04705179  0.23773376
   0.63291546  0.54705179  0.27570961
   0.35036398  0.45774257  0.14755339
   0.18477830  0.20332374  0.16208200
   0.80910153  0.79585510  0.26499380
   0.69142090  0.29606604  0.17544561
   0.31311481  0.70254070  0.25332324
   0.04228081  0.62146870  0.27294450
   0.95729971  0.37982711  0.15541646
   0.54844164  0.87012507  0.16777202
   0.44780253  0.12986194  0.25999874
   0.12950803  0.95938751  0.34110536
   0.84615292  0.04257281  0.38578667
   0.63953868  0.54039159  0.41962670
   0.38303104  0.43870247  0.29799587
   0.18299326  0.19911741  0.30459198
   0.81462829  0.80330507  0.41108172
   0.68190580  0.28639889  0.31860220
   0.31688518  0.69357254  0.39208862
   0.02599438  0.61055652  0.40624864
   0.95245453  0.37241136  0.29640941
   0.54754547  0.87241136  0.30999383
   0.46193012  0.12471657  0.40111209
Direct configuration=    10
   0.03641712  0.13800016  0.06063104
   0.96358288  0.86199984  0.08222610
   0.53641712  0.36199984  0.09263099
   0.46358288  0.63800016  0.05022615
   0.33168058  0.03561961  0.01675717
   0.66831942  0.96438039  0.12609997
   0.83168058  0.46438039  0.07800871
   0.16831942  0.53561961  0.06484843
   0.03641712  0.13800016  0.20348818
   0.96358288  0.86199984  0.22508325
   0.53641712  0.36199984  0.23548814
   0.46358288  0.63800016  0.19308329
   0.33168058  0.03561961  0.15961431
   0.66831942  0.96438039  0.26895712
   0.83168058  0.46438039  0.22086585
   0.16831942  0.53561961  0.20770558
   0.03641712  0.13800016  0.34634533
   0.96358288  0.86199984  0.36794039
   0.53641712  0.36199984  0.37834528
   0.46358288  0.63800016  0.33594043
   0.35348474  0.03418153  0.31013390
   0.66831942  0.96438039  0.41181426
   0.83168058  0.46438039  0.36372300
   0.16831942  0.53561961  0.35056272
   0.13291546  0.95294821  0.04798052
   0.86708454  0.04705179  0.09487662
   0.63291546  0.54705179  0.13285247
   0.36708454  0.45294821  0.01000468
   0.19089847  0.20414490  0.02072048
   0.80910153  0.79585510  0.12213666
   0.69089847  0.29585510  0.03382194
   0.30910153  0.70414490  0.10903520
   0.04754547  0.62758864  0.13216202
   0.95245453  0.37241136  0.01069513
   0.54754547  0.87241136  0.02427955
   0.45245453  0.12758864  0.11857760
   0.11668226  0.93632693  0.17908472
   0.86708454  0.04705179  0.23773376
   0.63291546  0.54705179  0.27570961
   0.34854110  0.45829202  0.14666774
   0.18532098  0.20329871  0.16231728
   0.80910153  0.79585510  0.26499380
   0.69174619  0.29577892  0.17537330
   0.31299080  0.70257381  0.25349614
   0.04254484  0.62143760  0.27343422
   0.95772832  0.38005772  0.15543149
   0.54829302  0.87012874  0.16769583
   0.44755839  0.13056021  0.26013237
   0.12946174  0.96076526  0.34188709
   0.84317242  0.04160298  0.38614258
   0.64001316  0.53825006  0.41927018
   0.38329767  0.43901808  0.29853341
   0.18313738  0.19804199  0.30505671
   0.81499846  0.80278255  0.41147554
   0.68077460  0.28629549  0.31794870
   0.31619965  0.69343024  0.39258210
   0.02319773  0.60954790  0.40520125
   0.95245453  0.37241136  0.29640941
   0.54754547  0.87241136  0.30999383
   0.46402156  0.12627472  0.40146823
Direct configuration=    11
   0.03641712  0.13800016  0.06063104
   0.96358288  0.86199984  0.08222610
   0.53641712  0.36199984  0.09263099
   0.46358288  0.63800016  0.05022615
   0.33168058  0.03561961  0.01675717
   0.66831942  0.96438039  0.12609997
   0.83168058  0.46438039  0.07800871
   0.16831942  0.53561961  0.06484843
   0.03641712  0.13800016  0.20348818
   0.96358288  0.86199984  0.22508325
   0.53641712  0.36199984  0.23548814
   0.46358288  0.63800016  0.19308329
   0.33168058  0.03561961  0.15961431
   0.66831942  0.96438039  0.26895712
   0.83168058  0.46438039  0.22086585
   0.16831942  0.53561961  0.20770558
   0.03641712  0.13800016  0.34634533
   0.96358288  0.86199984  0.36794039
   0.53641712  0.36199984  0.37834528
   0.46358288  0.63800016  0.33594043
   0.35404897  0.03262349  0.30987400
   0.66831942  0.96438039  0.41181426
   0.83168058  0.46438039  0.36372300
   0.16831942  0.53561961  0.35056272
   0.13291546  0.95294821  0.04798052
   0.86708454  0.04705179  0.09487662
   0.63291546  0.54705179  0.13285247
   0.36708454  0.45294821  0.01000468
   0.19089847  0.20414490  0.02072048
   0.80910153  0.79585510  0.12213666
   0.69089847  0.29585510  0.03382194
   0.30910153  0.70414490  0.10903520
   0.04754547  0.62758864  0.13216202
   0.95245453  0.37241136  0.01069513
   0.54754547  0.87241136  0.02427955
   0.45245453  0.12758864  0.11857760
   0.11702309  0.93660282  0.17923823
   0.86708454  0.04705179  0.23773376
   0.63291546  0.54705179  0.27570961
   0.34649298  0.45890937  0.14567267
   0.18593071  0.20327059  0.16258163
   0.80910153  0.79585510  0.26499380
   0.69211168  0.29545633  0.17529206
   0.31285146  0.70261100  0.25369040
   0.04284150  0.62140266  0.27398445
   0.95820989  0.38031683  0.15544838
   0.54812603  0.87013285  0.16761022
   0.44728409  0.13134476  0.26028251
   0.12940974  0.96231325  0.34276542
   0.83982366  0.04051332  0.38654246
   0.64054627  0.53584393  0.41886961
   0.38359724  0.43937269  0.29913737
   0.18329932  0.19683369  0.30557887
   0.81541436  0.80219546  0.41191802
   0.67950364  0.28617931  0.31721445
   0.31542942  0.69327037  0.39313654
   0.02005554  0.60841465  0.40402445
   0.95245453  0.37241136  0.29640941
   0.54754547  0.87241136  0.30999383
   0.46637141  0.12802538  0.40186839
Direct configuration=    12
   0.03641712  0.13800016  0.06063104
   0.96358288  0.86199984  0.08222610
   0.53641712  0.36199984  0.09263099
   0.46358288  0.63800016  0.05022615
   0.33168058  0.03561961  0.01675717
   0.66831942  0.96438039  0.12609997
   0.83168058  0.46438039  0.07800871
   0.16831942  0.53561961  0.06484843
   0.03641712  0.13800016  0.20348818
   0.96358288  0.86199984  0.22508325
   0.53641712  0.36199984  0.23548814
   0.46358288  0.63800016  0.19308329
   0.33168058  0.03561961  0.15961431
   0.66831942  0.96438039  0.26895712
   0.83168058  0.46438039  0.22086585
   0.16831942  0.53561961  0.20770558
   0.03641712  0.13800016  0.34634533
   0.96358288  0.86199984  0.36794039
   0.53641712  0.36199984  0.37834528
   0.46358288  0.63800016  0.33594043
   0.35458830  0.03229372  0.30998402
   0.66831942  0.96438039  0.41181426
   0.83168058  0.46438039  0.36372300
   0.16831942  0.53561961  0.35056272
   0.13291546  0.95294821  0.04798052
   0.86708454  0.04705179  0.09487662
   0.63291546  0.54705179  0.13285247
   0.36708454  0.45294821  0.01000468
   0.19089847  0.20414490  0.02072048
   0.80910153  0.79585510  0.12213666
   0.69089847  0.29585510  0.03382194
   0.30910153  0.70414490  0.10903520
   0.04754547  0.62758864  0.13216202
   0.95245453  0.37241136  0.01069513
   0.54754547  0.87241136  0.02427955
   0.45245453  0.12758864  0.11857760
   0.11770344  0.93692721  0.17964715
   0.86708454  0.04705179  0.23773376
   0.63291546  0.54705179  0.27570961
   0.34535961  0.45921844  0.14527446
   0.18573138  0.20342256  0.16258130
   0.80910153  0.79585510  0.26499380
   0.69180320  0.29551608  0.17543225
   0.31299549  0.70264729  0.25387096
   0.04328736  0.62139026  0.27410062
   0.95799962  0.38049607  0.15557859
   0.54817879  0.87030161  0.16767003
   0.44673355  0.13103411  0.26016885
   0.12997939  0.96214112  0.34309517
   0.83887782  0.04046125  0.38657713
   0.64126372  0.53568270  0.41898944
   0.38248184  0.43971227  0.29899512
   0.18327958  0.19677839  0.30571408
   0.81519859  0.80227871  0.41189012
   0.67850026  0.28559126  0.31652909
   0.31547263  0.69282581  0.39315994
   0.01936214  0.60846439  0.40351795
   0.95245453  0.37241136  0.29640941
   0.54754547  0.87241136  0.30999383
   0.46717409  0.12871476  0.40169641
Direct configuration=    13
   0.03641712  0.13800016  0.06063104
   0.96358288  0.86199984  0.08222610
   0.53641712  0.36199984  0.09263099
   0.46358288  0.63800016  0.05022615
   0.33168058  0.03561961  0.01675717
   0.66831942  0.96438039  0.12609997
   0.83168058  0.46438039  0.07800871
   0.16831942  0.53561961  0.06484843
   0.03641712  0.13800016  0.20348818
   0.96358288  0.86199984  0.22508325
   0.53641712  0.36199984  0.23548814
   0.46358288  0.63800016  0.19308329
   0.33168058  0.03561961  0.15961431
   0.66831942  0.96438039  0.26895712
   0.83168058  0.46438039  0.22086585
   0.16831942  0.53561961  0.20770558
   0.03641712  0.13800016  0.34634533
   0.96358288  0.86199984  0.36794039
   0.53641712  0.36199984  0.37834528
   0.46358288  0.63800016  0.33594043
   0.35607317  0.03138583  0.31028692
   0.66831942  0.96438039  0.41181426
   0.83168058  0.46438039  0.36372300
   0.16831942  0.53561961  0.35056272
   0.13291546  0.95294821  0.04798052
   0.86708454  0.04705179  0.09487662
   0.63291546  0.54705179  0.13285247
   0.36708454  0.45294821  0.01000468
   0.19089847  0.20414490  0.02072048
   0.80910153  0.79585510  0.12213666
   0.69089847  0.29585510  0.03382194
   0.30910153  0.70414490  0.10903520
   0.04754547  0.62758864  0.13216202
   0.95245453  0.37241136  0.01069513
   0.54754547  0.87241136  0.02427955
   0.45245453  0.12758864  0.11857760
   0.11957656  0.93782031  0.18077296
   0.86708454  0.04705179  0.23773376
   0.63291546  0.54705179  0.27570961
   0.34223930  0.46006936  0.14417812
   0.18518259  0.20384096  0.16258038
   0.80910153  0.79585510  0.26499380
   0.69095393  0.29568057  0.17581821
   0.31339202  0.70274721  0.25436807
   0.04451488  0.62135613  0.27442044
   0.95742070  0.38098955  0.15593707
   0.54832403  0.87076624  0.16783469
   0.44521783  0.13017887  0.25985592
   0.13154773  0.96166721  0.34400300
   0.83627380  0.04031791  0.38667256
   0.64323896  0.53523881  0.41931936
   0.37941101  0.44064718  0.29860347
   0.18322522  0.19662615  0.30608634
   0.81460454  0.80250792  0.41181331