  30  30   1   0
  0.7305754E+02  0.7709157E-09  0.3224631E-08  0.1780354E-08  0.5000000E-15
  1.000000000000000E-004
  CAR 
 Tetradymite Slab                        
     10.72076472    -24.99051120  301      0.23008599      1.00000000
    -24.991  0.0000E+00  0.0000E+00
    -24.871  0.0000E+00  0.0000E+00
    -24.752  0.0000E+00  0.0000E+00
    -24.633 -0.1252E-28 -0.1491E-29
    -24.514 -0.1489E-24 -0.1772E-25
    -24.395 -0.8685E-21 -0.1034E-21
    -24.276 -0.2488E-17 -0.2962E-18
    -24.157 -0.3451E-14 -0.4111E-15
    -24.038 -0.2326E-11 -0.2772E-12
    -23.919 -0.7773E-09 -0.9280E-10
    -23.800 -0.1264E-06 -0.1514E-07
    -23.681 -0.9946E-05 -0.1199E-05
    -23.562 -0.3755E-03 -0.4590E-04
    -23.443 -0.6729E-02 -0.8469E-03
    -23.324 -0.5671E-01 -0.7597E-02
    -23.205 -0.2253E+00 -0.3442E-01
    -23.086 -0.3376E+00 -0.7460E-01
    -22.967  0.1327E+01  0.8341E-01
    -22.848  0.9292E+01  0.1190E+01
    -22.729  0.1987E+02  0.3555E+01
    -22.610  0.1696E+02  0.5574E+01
    -22.491  0.4828E+01  0.6149E+01
    -22.372 -0.6096E+00  0.6076E+01
    -22.253 -0.5365E+00  0.6012E+01
    -22.134 -0.9442E-01  0.6001E+01
    -22.015 -0.7094E-02  0.6000E+01
    -21.896 -0.2536E-03  0.6000E+01
    -21.776 -0.4445E-05  0.6000E+01
    -21.657 -0.3851E-07  0.6000E+01
    -21.538 -0.1652E-09  0.6000E+01
    -21.419 -0.3501E-12  0.6000E+01
    -21.300 -0.1865E-15  0.6000E+01
    -21.181  0.0000E+00  0.6000E+01
    -21.062  0.0000E+00  0.6000E+01
    -20.943  0.0000E+00  0.6000E+01
    -20.824  0.0000E+00  0.6000E+01
    -20.705  0.0000E+00  0.6000E+01
    -20.586  0.0000E+00  0.6000E+01
    -20.467  0.0000E+00  0.6000E+01
    -20.348  0.0000E+00  0.6000E+01
    -20.229  0.0000E+00  0.6000E+01
    -20.110  0.0000E+00  0.6000E+01
    -19.991  0.0000E+00  0.6000E+01
    -19.872  0.0000E+00  0.6000E+01
    -19.753  0.0000E+00  0.6000E+01
    -19.634  0.0000E+00  0.6000E+01
    -19.515  0.0000E+00  0.6000E+01
    -19.396  0.0000E+00  0.6000E+01
    -19.277  0.0000E+00  0.6000E+01
    -19.158  0.0000E+00  0.6000E+01
    -19.039  0.0000E+00  0.6000E+01
    -18.920  0.0000E+00  0.6000E+01
    -18.801  0.0000E+00  0.6000E+01
    -18.682  0.0000E+00  0.6000E+01
    -18.562  0.0000E+00  0.6000E+01
    -18.443  0.0000E+00  0.6000E+01
    -18.324  0.0000E+00  0.6000E+01
    -18.205  0.0000E+00  0.6000E+01
    -18.086  0.0000E+00  0.6000E+01
    -17.967  0.0000E+00  0.6000E+01
    -17.848  0.0000E+00  0.6000E+01
    -17.729  0.0000E+00  0.6000E+01
    -17.610  0.0000E+00  0.6000E+01
    -17.491  0.0000E+00  0.6000E+01
    -17.372  0.0000E+00  0.6000E+01
    -17.253  0.0000E+00  0.6000E+01
    -17.134  0.0000E+00  0.6000E+01
    -17.015  0.0000E+00  0.6000E+01
    -16.896  0.0000E+00  0.6000E+01
    -16.777  0.0000E+00  0.6000E+01
    -16.658  0.0000E+00  0.6000E+01
    -16.539  0.0000E+00  0.6000E+01
    -16.420  0.0000E+00  0.6000E+01
    -16.301  0.0000E+00  0.6000E+01
    -16.182  0.0000E+00  0.6000E+01
    -16.063  0.0000E+00  0.6000E+01
    -15.944  0.0000E+00  0.6000E+01
    -15.825  0.0000E+00  0.6000E+01
    -15.706  0.0000E+00  0.6000E+01
    -15.587  0.0000E+00  0.6000E+01
    -15.468  0.0000E+00  0.6000E+01
    -15.348  0.0000E+00  0.6000E+01
    -15.229  0.0000E+00  0.6000E+01
    -15.110  0.0000E+00  0.6000E+01
    -14.991  0.0000E+00  0.6000E+01
    -14.872  0.0000E+00  0.6000E+01
    -14.753  0.0000E+00  0.6000E+01
    -14.634  0.0000E+00  0.6000E+01
    -14.515  0.0000E+00  0.6000E+01
    -14.396  0.0000E+00  0.6000E+01
    -14.277  0.0000E+00  0.6000E+01
    -14.158  0.0000E+00  0.6000E+01
    -14.039  0.0000E+00  0.6000E+01
    -13.920 -0.9558E-29  0.6000E+01
    -13.801 -0.9772E-25  0.6000E+01
    -13.682 -0.4912E-21  0.6000E+01
    -13.563 -0.1214E-17  0.6000E+01
    -13.444 -0.1430E-14  0.6000E+01
    -13.325 -0.8497E-12  0.6000E+01
    -13.206 -0.2470E-09  0.6000E+01
    -13.087 -0.3511E-07  0.6000E+01
    -12.968 -0.2430E-05  0.6000E+01
    -12.849 -0.8120E-04  0.6000E+01
    -12.730 -0.1286E-02  0.6000E+01
    -12.611 -0.9118E-02  0.5999E+01
    -12.492 -0.2166E-01  0.5996E+01
    -12.373  0.4396E-01  0.6001E+01
    -12.253  0.3191E+00  0.6039E+01
    -12.134  0.6409E+00  0.6116E+01
    -12.015  0.6731E+00  0.6196E+01
    -11.896  0.5288E+00  0.6259E+01
    -11.777  0.5352E+00  0.6322E+01
    -11.658  0.7712E+00  0.6414E+01
    -11.539  0.9795E+00  0.6531E+01
    -11.420  0.8807E+00  0.6636E+01
    -11.301  0.7037E+00  0.6719E+01
    -11.182  0.6614E+00  0.6798E+01
    -11.063  0.6213E+00  0.6872E+01
    -10.944  0.6396E+00  0.6948E+01
    -10.825  0.6052E+00  0.7020E+01
    -10.706  0.4612E+00  0.7075E+01
    -10.587  0.4305E+00  0.7126E+01
    -10.468  0.3760E+00  0.7171E+01
    -10.349  0.1884E+00  0.7194E+01
    -10.230  0.3383E+00  0.7234E+01
    -10.111  0.1035E+01  0.7357E+01
     -9.992  0.1641E+01  0.7552E+01
     -9.873  0.1479E+01  0.7728E+01
     -9.754  0.7814E+00  0.7821E+01
     -9.635  0.4289E+00  0.7873E+01
     -9.516  0.5984E+00  0.7944E+01
     -9.397  0.7574E+00  0.8034E+01
     -9.278  0.6676E+00  0.8113E+01
     -9.159  0.5988E+00  0.8185E+01
     -9.039  0.6343E+00  0.8260E+01
     -8.920  0.5803E+00  0.8329E+01
     -8.801  0.6869E+00  0.8411E+01
     -8.682  0.9248E+00  0.8521E+01
     -8.563  0.8963E+00  0.8628E+01
     -8.444  0.7167E+00  0.8713E+01
     -8.325  0.5323E+00  0.8776E+01
     -8.206  0.4258E+00  0.8827E+01
     -8.087  0.5068E+00  0.8887E+01
     -7.968  0.5324E+00  0.8951E+01
     -7.849  0.3396E+00  0.8991E+01
     -7.730  0.9670E-01  0.9003E+01
     -7.611 -0.9276E-02  0.9002E+01
     -7.492 -0.1167E-01  0.9000E+01
     -7.373 -0.2401E-02  0.9000E+01
     -7.254 -0.2045E-03  0.9000E+01
     -7.135 -0.8101E-05  0.9000E+01
     -7.016 -0.1545E-06  0.9000E+01
     -6.897 -0.1439E-08  0.9000E+01
     -6.778 -0.6569E-11  0.9000E+01
     -6.659 -0.1471E-13  0.9000E+01
     -6.540 -0.1332E-16  0.9000E+01
     -6.421  0.0000E+00  0.9000E+01
     -6.302  0.0000E+00  0.9000E+01
     -6.183  0.0000E+00  0.9000E+01
     -6.064  0.0000E+00  0.9000E+01
     -5.944  0.0000E+00  0.9000E+01
     -5.825  0.0000E+00  0.9000E+01
     -5.706  0.0000E+00  0.9000E+01
     -5.587  0.0000E+00  0.9000E+01
     -5.468 -0.1066E-29  0.9000E+01
     -5.349 -0.1249E-25  0.9000E+01
     -5.230 -0.7185E-22  0.9000E+01
     -5.111 -0.2029E-18  0.9000E+01
     -4.992 -0.2738E-15  0.9000E+01
     -4.873 -0.1853E-12  0.9000E+01
     -4.754 -0.6159E-10  0.9000E+01
     -4.635 -0.1003E-07  0.9000E+01
     -4.516 -0.7996E-06  0.9000E+01
     -4.397 -0.3095E-04  0.9000E+01
     -4.278 -0.5715E-03  0.9000E+01
     -4.159 -0.4772E-02  0.8999E+01
     -4.040 -0.1453E-01  0.8998E+01
     -3.921  0.1303E-01  0.8999E+01
     -3.802  0.1676E+00  0.9019E+01
     -3.683  0.4019E+00  0.9067E+01
     -3.564  0.5268E+00  0.9130E+01
     -3.445  0.5194E+00  0.9192E+01
     -3.326  0.6762E+00  0.9272E+01
     -3.207  0.1185E+01  0.9413E+01
     -3.088  0.1567E+01  0.9600E+01
     -2.969  0.1471E+01  0.9775E+01
     -2.850  0.1291E+01  0.9928E+01
     -2.730  0.1200E+01  0.1007E+02
     -2.611  0.1204E+01  0.1021E+02
     -2.492  0.1371E+01  0.1038E+02
     -2.373  0.1638E+01  0.1057E+02
     -2.254  0.1886E+01  0.1080E+02
     -2.135  0.1974E+01  0.1103E+02
     -2.016  0.1887E+01  0.1126E+02
     -1.897  0.1869E+01  0.1148E+02
     -1.778  0.1935E+01  0.1171E+02
     -1.659  0.1585E+01  0.1190E+02
     -1.540  0.1051E+01  0.1202E+02
     -1.421  0.1065E+01  0.1215E+02
     -1.302  0.1269E+01  0.1230E+02
     -1.183  0.1139E+01  0.1244E+02
     -1.064  0.8704E+00  0.1254E+02
     -0.945  0.9311E+00  0.1265E+02
     -0.826  0.1407E+01  0.1282E+02
     -0.707  0.1704E+01  0.1302E+02
     -0.588  0.1518E+01  0.1320E+02
     -0.469  0.1392E+01  0.1337E+02
     -0.350  0.1638E+01  0.1356E+02
     -0.231  0.1936E+01  0.1379E+02
     -0.112  0.1991E+01  0.1403E+02
      0.007  0.1677E+01  0.1423E+02
      0.126  0.1058E+01  0.1436E+02
      0.245  0.3920E+00  0.1440E+02
      0.364  0.2668E-01  0.1441E+02
      0.484 -0.3484E-01  0.1440E+02
      0.603 -0.1530E-01  0.1440E+02
      0.722 -0.1780E-01  0.1440E+02
      0.841 -0.7064E-02  0.1440E+02
      0.960  0.1487E+00  0.1441E+02
      1.079  0.3836E+00  0.1446E+02
      1.198  0.4924E+00  0.1452E+02
      1.317  0.6473E+00  0.1460E+02
      1.436  0.9898E+00  0.1471E+02
      1.555  0.1498E+01  0.1489E+02
      1.674  0.1857E+01  0.1511E+02
      1.793  0.1664E+01  0.1531E+02
      1.912  0.1188E+01  0.1545E+02
      2.031  0.1165E+01  0.1559E+02
      2.150  0.1561E+01  0.1578E+02
      2.269  0.1720E+01  0.1598E+02
      2.388  0.1523E+01  0.1616E+02
      2.507  0.1348E+01  0.1632E+02
      2.626  0.1360E+01  0.1649E+02
      2.745  0.1371E+01  0.1665E+02
      2.864  0.1414E+01  0.1682E+02
      2.983  0.1712E+01  0.1702E+02
      3.102  0.1962E+01  0.1725E+02
      3.221  0.1720E+01  0.1746E+02
      3.340  0.1188E+01  0.1760E+02
      3.459  0.7033E+00  0.1768E+02
      3.579  0.3700E+00  0.1773E+02
      3.698  0.2731E+00  0.1776E+02
      3.817  0.3376E+00  0.1780E+02
      3.936  0.3474E+00  0.1784E+02
      4.055  0.3242E+00  0.1788E+02
      4.174  0.4480E+00  0.1793E+02
      4.293  0.6733E+00  0.1801E+02
      4.412  0.7711E+00  0.1811E+02
      4.531  0.7091E+00  0.1819E+02
      4.650  0.6056E+00  0.1826E+02
      4.769  0.6681E+00  0.1834E+02
      4.888  0.9340E+00  0.1845E+02
      5.007  0.1203E+01  0.1860E+02
      5.126  0.1303E+01  0.1875E+02
      5.245  0.1316E+01  0.1891E+02
      5.364  0.1392E+01  0.1907E+02
      5.483  0.1497E+01  0.1925E+02
      5.602  0.1641E+01  0.1945E+02
      5.721  0.1783E+01  0.1966E+02
      5.840  0.1796E+01  0.1987E+02
      5.959  0.1667E+01  0.2007E+02
      6.078  0.1601E+01  0.2026E+02
      6.197  0.1712E+01  0.2047E+02
      6.316  0.1901E+01  0.2069E+02
      6.435  0.2026E+01  0.2093E+02
      6.554  0.2020E+01  0.2117E+02
      6.673  0.2008E+01  0.2141E+02
      6.793  0.2118E+01  0.2167E+02
      6.912  0.2196E+01  0.2193E+02
      7.031  0.2099E+01  0.2218E+02
      7.150  0.1993E+01  0.2241E+02
      7.269  0.2050E+01  0.2266E+02
      7.388  0.2217E+01  0.2292E+02
      7.507  0.2270E+01  0.2319E+02
      7.626  0.2218E+01  0.2346E+02
      7.745  0.2244E+01  0.2372E+02
      7.864  0.2292E+01  0.2400E+02
      7.983  0.2381E+01  0.2428E+02
      8.102  0.2444E+01  0.2457E+02
      8.221  0.2431E+01  0.2486E+02
      8.340  0.2426E+01  0.2515E+02
      8.459  0.2089E+01  0.2540E+02
      8.578  0.1247E+01  0.2555E+02
      8.697  0.4418E+00  0.2560E+02
      8.816  0.5654E-01  0.2561E+02
      8.935 -0.2598E-01  0.2560E+02
      9.054 -0.1473E-01  0.2560E+02
      9.173 -0.3052E-02  0.2560E+02
      9.292 -0.3025E-03  0.2560E+02
      9.411 -0.1488E-04  0.2560E+02
      9.530 -0.3650E-06  0.2560E+02
      9.649 -0.4455E-08  0.2560E+02
      9.768 -0.2696E-10  0.2560E+02
      9.888 -0.8069E-13  0.2560E+02
     10.007 -0.1155E-15  0.2560E+02
     10.126  0.0000E+00  0.2560E+02
     10.245  0.0000E+00  0.2560E+02
     10.364  0.0000E+00  0.2560E+02
     10.483  0.0000E+00  0.2560E+02
     10.602  0.0000E+00  0.2560E+02
     10.721  0.0000E+00  0.2560E+02
     10.72076472    -24.99051120  301      0.23008599      1.00000000
    -24.991  0.0000E+00  0.0000E+00  0.0000E+00  0.0000E+00  0.0000E+00  0.0000E+00  0.0000E+00  0.0000E+00  0.0000E+00
    -24.871  0.0000E+00  0.0000E+00  0.0000E+00  0.0000E+00  0.0000E+00  0.0000E+00  0.0000E+00  0.0000E+00  0.0000E+00
    -24.752  0.0000E+00  0.0000E+00  0.0000E+00  0.0000E+00  0.0000E+00  0.0000E+00  0.0000E+00  0.0000E+00  0.0000E+00
    -24.633 -0.4134E-38 -0.1059E-37 -0.8563E-38 -0.5919E-38 -0.3112E-36 -0.4847E-36 -0.1111E-36 -0.1476E-36 -0.3550E-36
    -24.514 -0.5233E-34 -0.1254E-33 -0.1018E-33 -0.7066E-34 -0.4361E-32 -0.6428E-32 -0.1628E-32 -0.4890E-32 -0.5507E-32
    -24.395 -0.3340E-30 -0.7294E-30 -0.5972E-30 -0.4171E-30 -0.4113E-28 -0.4539E-28 -0.1824E-28 -0.5834E-28 -0.4489E-28
    -24.276 -0.1155E-26 -0.2090E-26 -0.1760E-26 -0.1250E-26 -0.2511E-24 -0.1935E-24 -0.1279E-24 -0.3903E-24 -0.2260E-24
    -24.157 -0.2311E-23 -0.2935E-23 -0.2661E-23 -0.1959E-23 -0.1091E-20 -0.5594E-21 -0.5911E-21 -0.1393E-20 -0.7179E-21
    -24.038 -0.2817E-20 -0.2087E-20 -0.2232E-20 -0.1751E-20 -0.2916E-17 -0.1123E-17 -0.1575E-17 -0.2600E-17 -0.1406E-17
    -23.919 -0.1987E-17 -0.8242E-18 -0.1127E-17 -0.9419E-18 -0.4224E-14 -0.1423E-14 -0.2220E-14 -0.2505E-14 -0.1627E-14
    -23.800 -0.7841E-15 -0.2095E-15 -0.3571E-15 -0.3089E-15 -0.3091E-11 -0.1040E-11 -0.1591E-11 -0.1344E-11 -0.1099E-11
    -23.681 -0.1611E-12 -0.3948E-13 -0.6696E-13 -0.5727E-13 -0.1158E-08 -0.4186E-09 -0.5882E-09 -0.4098E-09 -0.4194E-09
    -23.562 -0.1680E-10 -0.5076E-11 -0.6939E-11 -0.5674E-11 -0.2138E-06 -0.8710E-07 -0.1088E-06 -0.7068E-07 -0.8484E-07
    -23.443 -0.8841E-09 -0.3746E-09 -0.3865E-09 -0.2953E-09 -0.1919E-04 -0.9046E-05 -0.9963E-05 -0.6655E-05 -0.8695E-05
    -23.324 -0.2348E-07 -0.1426E-07 -0.1168E-07 -0.8222E-08 -0.8220E-03 -0.4554E-03 -0.4456E-03 -0.3248E-03 -0.4354E-03
    -23.205 -0.3101E-06 -0.2615E-06 -0.1929E-06 -0.1248E-06 -0.1627E-01 -0.1072E-01 -0.9518E-02 -0.7778E-02 -0.1025E-01
    -23.086 -0.1867E-05 -0.2089E-05 -0.1634E-05 -0.9819E-06 -0.1371E+00 -0.1095E+00 -0.9149E-01 -0.8449E-01 -0.1053E+00
    -22.967 -0.2924E-05 -0.4915E-05 -0.5304E-05 -0.2980E-05 -0.3446E+00 -0.3738E+00 -0.3136E+00 -0.3335E+00 -0.3657E+00
    -22.848  0.1538E-04  0.1462E-04  0.7002E-05  0.4515E-05  0.9130E+00  0.5251E+00  0.3452E+00  0.2331E+00  0.4759E+00
    -22.729  0.6505E-04  0.7855E-04  0.7318E-04  0.4282E-04  0.5245E+01  0.4889E+01  0.4053E+01  0.4067E+01  0.4738E+01
    -22.610  0.8348E-04  0.1075E-03  0.1299E-03  0.7622E-04  0.7411E+01  0.7839E+01  0.7522E+01  0.7750E+01  0.7819E+01
    -22.491  0.3760E-04  0.5054E-04  0.7733E-04  0.4677E-04  0.3667E+01  0.4051E+01  0.4874E+01  0.4875E+01  0.4214E+01
    -22.372  0.6666E-06  0.1685E-05  0.7379E-05  0.5286E-05  0.2075E+00  0.1739E+00  0.6720E+00  0.5593E+00  0.2545E+00
    -22.253 -0.3316E-05 -0.4311E-05 -0.6055E-05 -0.3537E-05 -0.3005E+00 -0.3425E+00 -0.3504E+00 -0.3683E+00 -0.3468E+00
    -22.134 -0.7601E-06 -0.1044E-05 -0.1708E-05 -0.1079E-05 -0.7941E-01 -0.8060E-01 -0.1187E+00 -0.1116E+00 -0.8705E-01
    -22.015 -0.6561E-07 -0.9465E-07 -0.1631E-06 -0.1094E-06 -0.7695E-02 -0.6823E-02 -0.1282E-01 -0.1115E-01 -0.7755E-02
    -21.896 -0.2550E-08 -0.3879E-08 -0.6749E-08 -0.4801E-08 -0.3348E-03 -0.2539E-03 -0.5937E-03 -0.4799E-03 -0.3038E-03
    -21.776 -0.4704E-10 -0.7559E-10 -0.1294E-09 -0.9777E-10 -0.6885E-05 -0.4407E-05 -0.1268E-04 -0.9540E-05 -0.5562E-05
    -21.657 -0.4202E-12 -0.7137E-12 -0.1180E-11 -0.9486E-12 -0.6817E-07 -0.3659E-07 -0.1283E-06 -0.9002E-07 -0.4880E-07
    -21.538 -0.1836E-14 -0.3289E-14 -0.5185E-14 -0.4442E-14 -0.3273E-09 -0.1472E-09 -0.6237E-09 -0.4084E-09 -0.2077E-09
    -21.419 -0.3937E-17 -0.7416E-17 -0.1107E-16 -0.1010E-16 -0.7646E-12 -0.2890E-12 -0.1466E-11 -0.8981E-12 -0.4317E-12
    -21.300 -0.3376E-20 -0.9126E-20 -0.6528E-21 -0.1137E-19 -0.1227E-14 -0.6266E-16 -0.2262E-14 -0.7546E-16 -0.5105E-16
    -21.181  0.0000E+00  0.0000E+00  0.0000E+00  0.0000E+00  0.0000E+00  0.0000E+00  0.0000E+00  0.0000E+00  0.0000E+00
    -21.062  0.0000E+00  0.0000E+00  0.0000E+00  0.0000E+00  0.0000E+00  0.0000E+00  0.0000E+00  0.0000E+00  0.0000E+00
    -20.943  0.0000E+00  0.0000E+00  0.0000E+00  0.0000E+00  0.0000E+00  0.0000E+00  0.0000E+00  0.0000E+00  0.0000E+00
    -20.824  0.0000E+00  0.0000E+00  0.0000E+00  0.0000E+00  0.0000E+00  0.0000E+00  0.0000E+00  0.0000E+00  0.0000E+00
    -20.705  0.0000E+00  0.0000E+00  0.0000E+00  0.0000E+00  0.0000E+00  0.0000E+00  0.0000E+00  0.0000E+00  0.0000E+00
    -20.586  0.0000E+00  0.0000E+00  0.0000E+00  0.0000E+00  0.0000E+00  0.0000E+00  0.0000E+00  0.0000E+00  0.0000E+00
    -20.467  0.0000E+00  0.0000E+00  0.0000E+00  0.0000E+00  0.0000E+00  0.0000E+00  0.0000E+00  0.0000E+00  0.0000E+00
    -20.348  0.0000E+00  0.0000E+00  0.0000E+00  0.0000E+00  0.0000E+00  0.0000E+00  0.0000E+00  0.0000E+00  0.0000E+00
    -20.229  0.0000E+00  0.0000E+00  0.0000E+00  0.0000E+00  0.0000E+00  0.0000E+00  0.0000E+00  0.0000E+00  0.0000E+00
    -20.110  0.0000E+00  0.0000E+00  0.0000E+00  0.0000E+00  0.0000E+00  0.0000E+00  0.0000E+00  0.0000E+00  0.0000E+00
    -19.991  0.0000E+00  0.0000E+00  0.0000E+00  0.0000E+00  0.0000E+00  0.0000E+00  0.0000E+00  0.0000E+00  0.0000E+00
    -19.872  0.0000E+00  0.0000E+00  0.0000E+00  0.0000E+00  0.0000E+00  0.0000E+00  0.0000E+00  0.0000E+00  0.0000E+00
    -19.753  0.0000E+00  0.0000E+00  0.0000E+00  0.0000E+00  0.0000E+00  0.0000E+00  0.0000E+00  0.0000E+00  0.0000E+00
    -19.634  0.0000E+00  0.0000E+00  0.0000E+00  0.0000E+00  0.0000E+00  0.0000E+00  0.0000E+00  0.0000E+00  0.0000E+00
    -19.515  0.0000E+00  0.0000E+00  0.0000E+00  0.0000E+00  0.0000E+00  0.0000E+00  0.0000E+00  0.0000E+00  0.0000E+00
    -19.396  0.0000E+00  0.0000E+00  0.0000E+00  0.0000E+00  0.0000E+00  0.0000E+00  0.0000E+00  0.0000E+00  0.0000E+00
    -19.277  0.0000E+00  0.0000E+00  0.0000E+00  0.0000E+00  0.0000E+00  0.0000E+00  0.0000E+00  0.0000E+00  0.0000E+00
    -19.158  0.0000E+00  0.0000E+00  0.0000E+00  0.0000E+00  0.0000E+00  0.0000E+00  0.0000E+00  0.0000E+00  0.0000E+00
    -19.039  0.0000E+00  0.0000E+00  0.0000E+00  0.0000E+00  0.0000E+00  0.0000E+00  0.0000E+00  0.0000E+00  0.0000E+00
    -18.920  0.0000E+00  0.0000E+00  0.0000E+00  0.0000E+00  0.0000E+00  0.0000E+00  0.0000E+00  0.0000E+00  0.0000E+00
    -18.801  0.0000E+00  0.0000E+00  0.0000E+00  0.0000E+00  0.0000E+00  0.0000E+00  0.0000E+00  0.0000E+00  0.0000E+00
    -18.682  0.0000E+00  0.0000E+00  0.0000E+00  0.0000E+00  0.0000E+00  0.0000E+00  0.0000E+00  0.0000E+00  0.0000E+00
    -18.562  0.0000E+00  0.0000E+00  0.0000E+00  0.0000E+00  0.0000E+00  0.0000E+00  0.0000E+00  0.0000E+00  0.0000E+00
    -18.443  0.0000E+00  0.0000E+00  0.0000E+00  0.0000E+00  0.0000E+00  0.0000E+00  0.0000E+00  0.0000E+00  0.0000E+00
    -18.324  0.0000E+00  0.0000E+00  0.0000E+00  0.0000E+00  0.0000E+00  0.0000E+00  0.0000E+00  0.0000E+00  0.0000E+00
    -18.205  0.0000E+00  0.0000E+00  0.0000E+00  0.0000E+00  0.0000E+00  0.0000E+00  0.0000E+00  0.0000E+00  0.0000E+00
    -18.086  0.0000E+00  0.0000E+00  0.0000E+00  0.0000E+00  0.0000E+00  0.0000E+00  0.0000E+00  0.0000E+00  0.0000E+00
    -17.967  0.0000E+00  0.0000E+00  0.0000E+00  0.0000E+00  0.0000E+00  0.0000E+00  0.0000E+00  0.0000E+00  0.0000E+00
    -17.848  0.0000E+00  0.0000E+00  0.0000E+00  0.0000E+00  0.0000E+00  0.0000E+00  0.0000E+00  0.0000E+00  0.0000E+00
    -17.729  0.0000E+00  0.0000E+00  0.0000E+00  0.0000E+00  0.0000E+00  0.0000E+00  0.0000E+00  0.0000E+00  0.0000E+00
    -17.610  0.0000E+00  0.0000E+00  0.0000E+00  0.0000E+00  0.0000E+00  0.0000E+00  0.0000E+00  0.0000E+00  0.0000E+00
    -17.491  0.0000E+00  0.0000E+00  0.0000E+00  0.0000E+00  0.0000E+00  0.0000E+00  0.0000E+00  0.0000E+00  0.0000E+00
    -17.372  0.0000E+00  0.0000E+00  0.0000E+00  0.0000E+00  0.0000E+00  0.0000E+00  0.0000E+00  0.0000E+00  0.0000E+00
    -17.253  0.0000E+00  0.0000E+00  0.0000E+00  0.0000E+00  0.0000E+00  0.0000E+00  0.0000E+00  0.0000E+00  0.0000E+00
    -17.134  0.0000E+00  0.0000E+00  0.0000E+00  0.0000E+00  0.0000E+00  0.0000E+00  0.0000E+00  0.0000E+00  0.0000E+00
    -17.015  0.0000E+00  0.0000E+00  0.0000E+00  0.0000E+00  0.0000E+00  0.0000E+00  0.0000E+00  0.0000E+00  0.0000E+00
    -16.896  0.0000E+00  0.0000E+00  0.0000E+00  0.0000E+00  0.0000E+00  0.0000E+00  0.0000E+00  0.0000E+00  0.0000E+00
    -16.777  0.0000E+00  0.0000E+00  0.0000E+00  0.0000E+00  0.0000E+00  0.0000E+00  0.0000E+00  0.0000E+00  0.0000E+00
    -16.658  0.0000E+00  0.0000E+00  0.0000E+00  0.0000E+00  0.0000E+00  0.0000E+00  0.0000E+00  0.0000E+00  0.0000E+00
    -16.539  0.0000E+00  0.0000E+00  0.0000E+00  0.0000E+00  0.0000E+00  0.0000E+00  0.0000E+00  0.0000E+00  0.0000E+00
    -16.420  0.0000E+00  0.0000E+00  0.0000E+00  0.0000E+00  0.0000E+00  0.0000E+00  0.0000E+00  0.0000E+00  0.0000E+00
    -16.301  0.0000E+00  0.0000E+00  0.0000E+00  0.0000E+00  0.0000E+00  0.0000E+00  0.0000E+00  0.0000E+00  0.0000E+00
    -16.182  0.0000E+00  0.0000E+00  0.0000E+00  0.0000E+00  0.0000E+00  0.0000E+00  0.0000E+00  0.0000E+00  0.0000E+00
    -16.063  0.0000E+00  0.0000E+00  0.0000E+00  0.0000E+00  0.0000E+00  0.0000E+00  0.0000E+00  0.0000E+00  0.0000E+00
    -15.944  0.0000E+00  0.0000E+00  0.0000E+00  0.0000E+00  0.0000E+00  0.0000E+00  0.0000E+00  0.0000E+00  0.0000E+00
    -15.825  0.0000E+00  0.0000E+00  0.0000E+00  0.0000E+00  0.0000E+00  0.0000E+00  0.0000E+00  0.0000E+00  0.0000E+00
    -15.706  0.0000E+00  0.0000E+00  0.0000E+00  0.0000E+00  0.0000E+00  0.0000E+00  0.0000E+00  0.0000E+00  0.0000E+00
    -15.587  0.0000E+00  0.0000E+00  0.0000E+00  0.0000E+00  0.0000E+00  0.0000E+00  0.0000E+00  0.0000E+00  0.0000E+00
    -15.468  0.0000E+00  0.0000E+00  0.0000E+00  0.0000E+00  0.0000E+00  0.0000E+00  0.0000E+00  0.0000E+00  0.0000E+00
    -15.348  0.0000E+00  0.0000E+00  0.0000E+00  0.0000E+00  0.0000E+00  0.0000E+00  0.0000E+00  0.0000E+00  0.0000E+00
    -15.229  0.0000E+00  0.0000E+00  0.0000E+00  0.0000E+00  0.0000E+00  0.0000E+00  0.0000E+00  0.0000E+00  0.0000E+00
    -15.110  0.0000E+00  0.0000E+00  0.0000E+00  0.0000E+00  0.0000E+00  0.0000E+00  0.0000E+00  0.0000E+00  0.0000E+00
    -14.991  0.0000E+00  0.0000E+00  0.0000E+00  0.0000E+00  0.0000E+00  0.0000E+00  0.0000E+00  0.0000E+00  0.0000E+00
    -14.872  0.0000E+00  0.0000E+00  0.0000E+00  0.0000E+00  0.0000E+00  0.0000E+00  0.0000E+00  0.0000E+00  0.0000E+00
    -14.753  0.0000E+00  0.0000E+00  0.0000E+00  0.0000E+00  0.0000E+00  0.0000E+00  0.0000E+00  0.0000E+00  0.0000E+00
    -14.634  0.0000E+00  0.0000E+00  0.0000E+00  0.0000E+00  0.0000E+00  0.0000E+00  0.0000E+00  0.0000E+00  0.0000E+00
    -14.515  0.0000E+00  0.0000E+00  0.0000E+00  0.0000E+00  0.0000E+00  0.0000E+00  0.0000E+00  0.0000E+00  0.0000E+00
    -14.396  0.0000E+00  0.0000E+00  0.0000E+00  0.0000E+00  0.0000E+00  0.0000E+00  0.0000E+00  0.0000E+00  0.0000E+00
    -14.277  0.0000E+00  0.0000E+00  0.0000E+00  0.0000E+00  0.0000E+00  0.0000E+00  0.0000E+00  0.0000E+00  0.0000E+00
    -14.158  0.0000E+00  0.0000E+00  0.0000E+00  0.0000E+00  0.0000E+00  0.0000E+00  0.0000E+00  0.0000E+00  0.0000E+00
    -14.039  0.0000E+00  0.0000E+00  0.0000E+00  0.0000E+00  0.0000E+00  0.0000E+00  0.0000E+00  0.0000E+00  0.0000E+00
    -13.920 -0.6420E-31 -0.1167E-33 -0.9358E-34 -0.8365E-33 -0.4791E-34 -0.9199E-37 -0.5462E-35 -0.9805E-35 -0.1250E-34
    -13.801 -0.6655E-27 -0.1197E-29 -0.9728E-30 -0.8667E-29 -0.4938E-30 -0.1104E-32 -0.5650E-31 -0.1012E-30 -0.1291E-30
    -13.682 -0.3400E-23 -0.6042E-26 -0.4987E-26 -0.4424E-25 -0.2506E-26 -0.6578E-29 -0.2880E-27 -0.5146E-27 -0.6566E-27
    -13.563 -0.8686E-20 -0.1507E-22 -0.1278E-22 -0.1129E-21 -0.6308E-23 -0.2086E-25 -0.7254E-24 -0.1303E-23 -0.1663E-23
    -13.444 -0.1097E-16 -0.1808E-19 -0.1614E-19 -0.1421E-18 -0.7709E-20 -0.3541E-22 -0.8769E-21 -0.1618E-20 -0.2063E-20
    -13.325 -0.7398E-14 -0.1117E-16 -0.1088E-16 -0.9530E-16 -0.4917E-17 -0.3375E-19 -0.5462E-18 -0.1062E-17 -0.1350E-17
    -13.206 -0.2693E-11 -0.3509E-14 -0.3938E-14 -0.3439E-13 -0.1634E-14 -0.1748E-16 -0.1716E-15 -0.3714E-15 -0.4692E-15
    -13.087 -0.5470E-09 -0.5798E-12 -0.7943E-12 -0.6915E-11 -0.2944E-12 -0.4854E-14 -0.2818E-13 -0.7190E-13 -0.8994E-13
    -12.968 -0.6194E-07 -0.5218E-10 -0.8958E-10 -0.7757E-09 -0.2959E-10 -0.6960E-12 -0.2526E-11 -0.7793E-11 -0.9632E-11
    -12.849 -0.3775E-05 -0.2611E-08 -0.5475E-08 -0.4697E-07 -0.1650E-08 -0.5013E-10 -0.1286E-09 -0.4610E-09 -0.5632E-09
    -12.730 -0.1173E-03 -0.7103E-07 -0.1720E-06 -0.1454E-05 -0.4882E-07 -0.1769E-08 -0.3719E-08 -0.1410E-07 -0.1705E-07
    -12.611 -0.1737E-02 -0.9793E-06 -0.2603E-05 -0.2150E-04 -0.7131E-06 -0.2968E-07 -0.5805E-07 -0.2078E-06 -0.2488E-06
    -12.492 -0.1084E-01 -0.5954E-05 -0.1698E-04 -0.1344E-03 -0.4549E-05 -0.2216E-06 -0.4462E-06 -0.1302E-05 -0.1538E-05
    -12.373 -0.1553E-01 -0.8839E-05 -0.2926E-04 -0.1947E-03 -0.7685E-05 -0.5587E-06 -0.1364E-05 -0.1916E-05 -0.2146E-05
    -12.253  0.8523E-01  0.4385E-04  0.1203E-03  0.1047E-02  0.3098E-04  0.9620E-06  0.6443E-06  0.1018E-04  0.1237E-04
    -12.134  0.3283E+00  0.1681E-03  0.5458E-03  0.4076E-02  0.1388E-03  0.7102E-05  0.1314E-04  0.4029E-04  0.4725E-04
    -12.015  0.4592E+00  0.2039E-03  0.8449E-03  0.5812E-02  0.2340E-03  0.1185E-04  0.3413E-04  0.5652E-04  0.6535E-04
    -11.896  0.4206E+00  0.2255E-03  0.7078E-03  0.5470E-02  0.2821E-03  0.1029E-04  0.6495E-04  0.4442E-04  0.5403E-04
    -11.777  0.4471E+00  0.9675E-03  0.5363E-03  0.5441E-02  0.2922E-03  0.3761E-04  0.1434E-03  0.3480E-04  0.3893E-04
    -11.658  0.5767E+00  0.2449E-02  0.1076E-02  0.6224E-02  0.2512E-03  0.1343E-03  0.2676E-03  0.6997E-04  0.3157E-04
    -11.539  0.6058E+00  0.2820E-02  0.2301E-02  0.6389E-02  0.2152E-03  0.2478E-03  0.2983E-03  0.1537E-03  0.3591E-04
    -11.420  0.4246E+00  0.1880E-02  0.3127E-02  0.4207E-02  0.2287E-03  0.3525E-03  0.2239E-03  0.2367E-03  0.4000E-04
    -11.301  0.3066E+00  0.1325E-02  0.4005E-02  0.2289E-02  0.3813E-03  0.4772E-03  0.2375E-03  0.3017E-03  0.5022E-04
    -11.182  0.3826E+00  0.1246E-02  0.5071E-02  0.2268E-02  0.4583E-03  0.6395E-03  0.2936E-03  0.3523E-03  0.6761E-04
    -11.063  0.4648E+00  0.1269E-02  0.5020E-02  0.2676E-02  0.4641E-03  0.7622E-03  0.3033E-03  0.3785E-03  0.6762E-04
    -10.944  0.4702E+00  0.1361E-02  0.4526E-02  0.3322E-02  0.8085E-03  0.7948E-03  0.3781E-03  0.4084E-03  0.5645E-04
    -10.825  0.4827E+00  0.1298E-02  0.4371E-02  0.3538E-02  0.1012E-02  0.9039E-03  0.4002E-03  0.4813E-03  0.4990E-04
    -10.706  0.4686E+00  0.8022E-03  0.3781E-02  0.2366E-02  0.6729E-03  0.8426E-03  0.2414E-03  0.4656E-03  0.4231E-04
    -10.587  0.5505E+00  0.2093E-03  0.4136E-02  0.1075E-02  0.2302E-03  0.7371E-03  0.5912E-04  0.4644E-03  0.4763E-04
    -10.468  0.4787E+00 -0.6468E-03  0.3538E-02  0.4300E-03 -0.6972E-04  0.4780E-03 -0.5464E-04  0.3452E-03  0.3986E-04
    -10.349  0.1597E+00 -0.1605E-02  0.1093E-02 -0.9297E-05 -0.2976E-03  0.7116E-04 -0.1319E-03  0.7989E-04  0.8466E-05
    -10.230  0.1831E-01  0.6571E-02  0.1009E-03  0.4801E-04  0.1003E-02  0.1486E-04  0.4607E-03 -0.3271E-05  0.2255E-04
    -10.111  0.1089E+00  0.3221E-01  0.1225E-02  0.1223E-02  0.5391E-02  0.5343E-03  0.2377E-02  0.2182E-03  0.1169E-03
     -9.992  0.1735E+00  0.4517E-01  0.3121E-02  0.3505E-02  0.7916E-02  0.1721E-02  0.3430E-02  0.7923E-03  0.1717E-03
     -9.873  0.1048E+00  0.2515E-01  0.4993E-02  0.5185E-02  0.4816E-02  0.2788E-02  0.2052E-02  0.1337E-02  0.1085E-03
     -9.754  0.3417E-01  0.4876E-02  0.6572E-02  0.3749E-02  0.1275E-02  0.2374E-02  0.5785E-03  0.1127E-02  0.3497E-04
     -9.635  0.5395E-01 -0.6270E-03  0.9584E-02  0.1334E-02  0.1580E-03  0.1977E-02  0.1618E-03  0.8914E-03  0.9000E-05
     -9.516  0.1444E+00 -0.1727E-03  0.1372E-01  0.1229E-02  0.4295E-03  0.2928E-02  0.2051E-03  0.1350E-02  0.1230E-04
     -9.397  0.2280E+00  0.6748E-03  0.1471E-01  0.2053E-02  0.7861E-03  0.3360E-02  0.2366E-03  0.1579E-02  0.1946E-04
     -9.278  0.2502E+00  0.1012E-02  0.1241E-01  0.1721E-02  0.6380E-03  0.2724E-02  0.2066E-03  0.1268E-02  0.1673E-04
     -9.159  0.2478E+00  0.1242E-02  0.1025E-01  0.1184E-02  0.4050E-03  0.1998E-02  0.2077E-03  0.8751E-03  0.1502E-04
     -9.039  0.2891E+00  0.1731E-02  0.9500E-02  0.1537E-02  0.4443E-03  0.1557E-02  0.2397E-03  0.6036E-03  0.2602E-04
     -8.920  0.2732E+00  0.2137E-02  0.8343E-02  0.1346E-02  0.4285E-03  0.1415E-02  0.2308E-03  0.5324E-03  0.3168E-04
     -8.801  0.2506E+00  0.3098E-02  0.8966E-02  0.1399E-02  0.4310E-03  0.1686E-02  0.2458E-03  0.6180E-03  0.4709E-04
     -8.682  0.3607E+00  0.6016E-02  0.1026E-01  0.2494E-02  0.6745E-03  0.1915E-02  0.3542E-03  0.6754E-03  0.1145E-03
     -8.563  0.4503E+00  0.9050E-02  0.6699E-02  0.2822E-02  0.8309E-03  0.1313E-02  0.4070E-03  0.4841E-03  0.2024E-03
     -8.444  0.4848E+00  0.9133E-02  0.3333E-02  0.2689E-02  0.7732E-03  0.6550E-03  0.3590E-03  0.2586E-03  0.2269E-03
     -8.325  0.4253E+00  0.5239E-02  0.2683E-02  0.2527E-02  0.4965E-03  0.3651E-03  0.2140E-03  0.1203E-03  0.1407E-03
     -8.206  0.2923E+00  0.1161E-02  0.2228E-02  0.2089E-02  0.1844E-03  0.2030E-03  0.6560E-04  0.3828E-04  0.4008E-04
     -8.087  0.2986E+00  0.3182E-04  0.2177E-02  0.2507E-02  0.8869E-04  0.1504E-03  0.2011E-04  0.1679E-04  0.2026E-04
     -7.968  0.3532E+00  0.1684E-03  0.2163E-02  0.3125E-02  0.7941E-04  0.1124E-03  0.1855E-04  0.1342E-04  0.3321E-04
     -7.849  0.2675E+00  0.1252E-03  0.1428E-02  0.2460E-02  0.3801E-04  0.4527E-04  0.8942E-05  0.5246E-05  0.2725E-04
     -7.730  0.9327E-01  0.1599E-04  0.4518E-03  0.8922E-03  0.5106E-05  0.4979E-05  0.9171E-06  0.2329E-06  0.9123E-05
     -7.611 -0.2909E-02 -0.1030E-04 -0.2715E-04 -0.1728E-04 -0.2657E-05 -0.3333E-05 -0.7214E-06 -0.4977E-06 -0.4376E-06
     -7.492 -0.9823E-02 -0.4108E-05 -0.5189E-04 -0.9121E-04 -0.1220E-05 -0.1475E-05 -0.2922E-06 -0.1737E-06 -0.9757E-06
     -7.373 -0.2197E-02 -0.5835E-06 -0.1121E-04 -0.2074E-04 -0.1875E-06 -0.2287E-06 -0.4328E-07 -0.2411E-07 -0.2119E-06
     -7.254 -0.1941E-03 -0.3831E-07 -0.9727E-06 -0.1847E-05 -0.1275E-07 -0.1573E-07 -0.2918E-08 -0.1540E-08 -0.1853E-07
     -7.135 -0.7846E-05 -0.1230E-08 -0.3876E-07 -0.7495E-07 -0.4078E-09 -0.5080E-09 -0.9399E-10 -0.4678E-10 -0.7468E-09
     -7.016 -0.1514E-06 -0.1972E-10 -0.7393E-09 -0.1450E-08 -0.6303E-11 -0.7907E-11 -0.1476E-11 -0.6868E-12 -0.1442E-10
     -6.897 -0.1418E-08 -0.1590E-12 -0.6863E-11 -0.1362E-10 -0.4788E-13 -0.6027E-13 -0.1142E-13 -0.4924E-14 -0.1354E-12
     -6.778 -0.6497E-11 -0.6479E-15 -0.3121E-13 -0.6247E-13 -0.1807E-15 -0.2274E-15 -0.4395E-16 -0.1740E-16 -0.6222E-15
     -6.659 -0.1458E-13 -0.1326E-17 -0.6962E-16 -0.1403E-15 -0.3394E-18 -0.4247E-18 -0.8389E-19 -0.3014E-19 -0.1400E-17
     -6.540 -0.1262E-16 -0.1258E-20 -0.5994E-19 -0.1225E-18 -0.1913E-21 -0.1476E-21 -0.1572E-22 -0.9866E-23 -0.1261E-20
     -6.421  0.0000E+00  0.0000E+00  0.0000E+00  0.0000E+00  0.0000E+00  0.0000E+00  0.0000E+00  0.0000E+00  0.0000E+00