       N       E                     dE             d eps       ncg     rms          rms(c)
DAV:   1     0.164131483819E+04    0.16413E+04   -0.98219E+04 11264   0.617E+02
DAV:   2     0.508253014859E+01   -0.16362E+04   -0.16059E+04 14080   0.194E+02
DAV:   3    -0.103126709461E+03   -0.10821E+03   -0.10806E+03 14080   0.616E+01
DAV:   4    -0.105997718694E+03   -0.28710E+01   -0.28709E+01 19712   0.111E+01
DAV:   5    -0.106015234864E+03   -0.17516E-01   -0.17516E-01 14464   0.673E-01    0.916E+00
RMM:   6    -0.100692885993E+03    0.53223E+01   -0.64421E+00 11306   0.301E+00    0.361E+00
RMM:   7    -0.100337709295E+03    0.35518E+00   -0.35406E-01 12489   0.148E+00    0.220E+00
RMM:   8    -0.100195277109E+03    0.14243E+00   -0.35650E-01 11293   0.973E-01    0.505E-01
RMM:   9    -0.100190631201E+03    0.46459E-02   -0.29615E-02 13277   0.378E-01    0.325E-01
RMM:  10    -0.100199317368E+03   -0.86862E-02   -0.13349E-02 11293   0.217E-01    0.161E-01
RMM:  11    -0.100200413835E+03   -0.10965E-02   -0.22103E-03 11588   0.717E-02    0.118E-01
RMM:  12    -0.100200873713E+03   -0.45988E-03   -0.11864E-03 11756   0.542E-02    0.731E-02
RMM:  13    -0.100201701568E+03   -0.82785E-03   -0.16128E-03 11312   0.551E-02    0.410E-02
RMM:  14    -0.100201677091E+03    0.24476E-04   -0.17802E-04 11976   0.435E-02    0.186E-02
RMM:  15    -0.100201651461E+03    0.25630E-04    0.68507E-04 11531   0.148E-02    0.887E-03
RMM:  16    -0.100201629828E+03    0.21633E-04    0.11902E-03 10604   0.453E-03    0.519E-03
RMM:  17    -0.100201606364E+03    0.23464E-04    0.18001E-03  9646   0.356E-03    0.270E-03
RMM:  18    -0.100201549263E+03    0.57101E-04    0.30116E-03  9406   0.185E-03    0.120E-03
RMM:  19    -0.100201396119E+03    0.15314E-03    0.56528E-03  8077   0.516E-04    0.115E-03
RMM:  20    -0.100201325274E+03    0.70845E-04    0.93607E-03  7794  -0.716E-04    0.161E-03
RMM:  21    -0.100201327896E+03   -0.26214E-05    0.10145E-02  6491  -0.128E-03    0.151E-03
RMM:  22    -0.100197348620E+03    0.39793E-02    0.17646E-02  6010  -0.121E-03    0.227E-02
RMM:  23    -0.100228661675E+03   -0.31313E-01    0.19740E-01  7834  -0.211E-02    0.661E-02
RMM:  24    -0.100231053973E+03   -0.23923E-02   -0.16842E-01  7824   0.159E-02    0.149E-01
RMM:  25    -0.100240411790E+03   -0.93578E-02   -0.77703E-01  9584   0.818E-02    0.124E-01
RMM:  26    -0.100284581666E+03   -0.44170E-01   -0.30968E-02 10312   0.186E-02    0.275E-01
RMM:  27    -0.100327792808E+03   -0.43211E-01   -0.14088E+00  9600   0.125E-01    0.384E-01
RMM:  28    -0.100416291393E+03   -0.88499E-01   -0.99712E-01 10234   0.118E-01    0.599E-01
RMM:  29    -0.100446125170E+03   -0.29834E-01   -0.32504E+00 10579   0.297E-01    0.559E-01
RMM:  30    -0.100393402668E+03    0.52723E-01   -0.46713E+00 11469   0.371E-01    0.455E-01
RMM:  31    -0.100435346039E+03   -0.41943E-01   -0.32942E+00 10131   0.261E-01    0.366E-01
RMM:  32    -0.100336357521E+03    0.98989E-01   -0.16977E+00 10797   0.161E-01    0.327E-01
RMM:  33    -0.100338995208E+03   -0.26377E-02   -0.14670E+00  9692   0.139E-01    0.259E-01
RMM:  34    -0.100271819987E+03    0.67175E-01   -0.13439E+00 10241   0.121E-01    0.181E-01
RMM:  35    -0.100234371680E+03    0.37448E-01   -0.18025E+00  9612   0.122E-01    0.124E-01
RMM:  36    -0.100268279534E+03   -0.33908E-01   -0.41732E-01  9909   0.382E-02    0.249E-01
RMM:  37    -0.100298778613E+03   -0.30499E-01   -0.23976E+00  8345   0.168E-01    0.202E-01
RMM:  38    -0.100520809992E+03   -0.22203E+00   -0.77531E-01  9782   0.863E-02    0.465E-01
RMM:  39    -0.100384061964E+03    0.13675E+00   -0.34784E+00  9575   0.298E-01    0.317E-01
RMM:  40    -0.100472801750E+03   -0.88740E-01   -0.15446E+00 10393   0.150E-01    0.511E-01
RMM:  41    -0.100513606747E+03   -0.40805E-01   -0.43219E+00  9631   0.336E-01    0.497E-01
RMM:  42    -0.100597869657E+03   -0.84263E-01   -0.26260E+00 10380   0.258E-01    0.656E-01
RMM:  43    -0.100435950536E+03    0.16192E+00   -0.67420E+00 10454   0.488E-01    0.485E-01
RMM:  44    -0.100402997593E+03    0.32953E-01   -0.39191E+00 10489   0.329E-01    0.439E-01
RMM:  45    -0.100427187616E+03   -0.24190E-01   -0.49644E+00  9833   0.350E-01    0.539E-01
RMM:  46    -0.100448950393E+03   -0.21763E-01   -0.41644E+00 10360   0.351E-01    0.689E-01
RMM:  47    -0.100465782712E+03   -0.16832E-01   -0.62423E+00 10021   0.491E-01    0.424E-01
RMM:  48    -0.100448016135E+03    0.17767E-01   -0.38141E+00 10341   0.299E-01    0.414E-01
RMM:  49    -0.100348344549E+03    0.99672E-01   -0.44379E+00  9761   0.322E-01    0.431E-01
RMM:  50    -0.100459140343E+03   -0.11080E+00   -0.31700E+00 10109   0.275E-01    0.578E-01
RMM:  51    -0.100415190881E+03    0.43949E-01   -0.46517E+00  9664   0.389E-01    0.424E-01
RMM:  52    -0.100394013895E+03    0.21177E-01   -0.44092E+00 10309   0.323E-01    0.576E-01
RMM:  53    -0.100371787677E+03    0.22226E-01   -0.53443E+00  9592   0.420E-01    0.522E-01
RMM:  54    -0.100357893485E+03    0.13894E-01   -0.50574E+00 10036   0.391E-01    0.517E-01
RMM:  55    -0.100361274181E+03   -0.33807E-02   -0.47611E+00  9873   0.372E-01    0.455E-01
RMM:  56    -0.100445500081E+03   -0.84226E-01   -0.42275E+00  9981   0.324E-01    0.589E-01
RMM:  57    -0.100385989466E+03    0.59511E-01   -0.61922E+00  9678   0.460E-01    0.486E-01
RMM:  58    -0.100346685716E+03    0.39304E-01   -0.48423E+00 10278   0.367E-01    0.422E-01
RMM:  59    -0.100408339895E+03   -0.61654E-01   -0.30758E+00  9631   0.264E-01    0.500E-01
RMM:  60    -0.100322027793E+03    0.86312E-01   -0.51881E+00  9992   0.382E-01    0.370E-01
RMM:  61    -0.100282957725E+03    0.39070E-01   -0.33949E+00  9896   0.257E-01    0.333E-01
RMM:  62    -0.100369777739E+03   -0.86820E-01   -0.34629E+00  9979   0.257E-01    0.504E-01
RMM:  63    -0.100436579750E+03   -0.66802E-01   -0.55098E+00  9620   0.400E-01    0.659E-01
RMM:  64    -0.100488980368E+03   -0.52401E-01   -0.60206E+00 10303   0.479E-01    0.616E-01
RMM:  65    -0.100347499865E+03    0.14148E+00   -0.60742E+00  9699   0.464E-01    0.487E-01
RMM:  66    -0.100385322895E+03   -0.37823E-01   -0.45994E+00 12441   0.374E-01    0.488E-01
RMM:  67    -0.100299929910E+03    0.85393E-01   -0.53914E+00 12236   0.394E-01    0.354E-01
RMM:  68    -0.100413991967E+03   -0.11406E+00   -0.24341E+00 11811   0.219E-01    0.600E-01
RMM:  69    -0.100344250973E+03    0.69741E-01   -0.62602E+00 10823   0.464E-01    0.342E-01
RMM:  70    -0.100335758151E+03    0.84928E-02   -0.33156E+00 11987   0.254E-01    0.398E-01
RMM:  71    -0.100377031100E+03   -0.41273E-01   -0.32329E+00 12238   0.268E-01    0.576E-01
RMM:  72    -0.100395995906E+03   -0.18965E-01   -0.58437E+00 11615   0.441E-01    0.578E-01
RMM:  73    -0.100505315388E+03   -0.10932E+00   -0.57841E+00 11264   0.441E-01    0.703E-01
RMM:  74    -0.100401285271E+03    0.10403E+00   -0.69026E+00 10792   0.525E-01    0.578E-01
RMM:  75    -0.100456506510E+03   -0.55221E-01   -0.50235E+00 11354   0.410E-01    0.537E-01
RMM:  76    -0.100346795006E+03    0.10971E+00   -0.57486E+00 12037   0.425E-01    0.333E-01
RMM:  77    -0.100375701995E+03   -0.28907E-01   -0.29672E+00 11462   0.230E-01    0.392E-01
RMM:  78    -0.100321029603E+03    0.54672E-01   -0.45090E+00 10806   0.318E-01    0.323E-01
RMM:  79    -0.100294695183E+03    0.26334E-01   -0.35975E+00 11535   0.254E-01    0.383E-01
RMM:  80    -0.100337577280E+03   -0.42882E-01   -0.41440E+00 11159   0.306E-01
   1 F= -.10033758E+03 E0= -.10034409E+03  d E =-.100338E+03
       N       E                     dE             d eps       ncg     rms          rms(c)
DAV:   1    -0.100917812796E+03   -0.62312E+00   -0.50834E+02 11264   0.314E+01    0.143E+00
RMM:   2    -0.102317685618E+03   -0.13999E+01   -0.14242E+01 11264   0.626E+00    0.619E-01
RMM:   3    -0.102409027977E+03   -0.91342E-01   -0.13512E+00 13854   0.217E+00    0.492E-01
RMM:   4    -0.102407680164E+03    0.13478E-02   -0.28223E-02 12521   0.369E-01    0.317E-01
RMM:   5    -0.102408142284E+03   -0.46212E-03   -0.13010E-02 11268   0.206E-01    0.153E-01
RMM:   6    -0.102408195334E+03   -0.53050E-04   -0.35627E-03 13763   0.994E-02    0.125E-01
RMM:   7    -0.102407730889E+03    0.46444E-03   -0.54471E-04 12081   0.511E-02    0.685E-02
RMM:   8    -0.102407549125E+03    0.18176E-03   -0.76844E-04 11890   0.528E-02    0.202E-02
RMM:   9    -0.102407571538E+03   -0.22413E-04   -0.18540E-04 11585   0.251E-02    0.200E-02
RMM:  10    -0.102407559560E+03    0.11978E-04   -0.47435E-05 11934   0.170E-02    0.529E-03
RMM:  11    -0.102407556946E+03    0.26131E-05    0.10237E-05 10055   0.374E-03    0.373E-03
RMM:  12    -0.102407553097E+03    0.38492E-05    0.15187E-05 10204   0.371E-03    0.166E-03
RMM:  13    -0.102407552576E+03    0.52098E-06    0.29994E-05  8070   0.248E-03    0.727E-04
RMM:  14    -0.102407551260E+03    0.13166E-05    0.45856E-05  8338   0.170E-03    0.381E-04
RMM:  15    -0.102407549402E+03    0.18582E-05    0.70672E-05  8338   0.152E-03    0.326E-04
RMM:  16    -0.102407546313E+03    0.30883E-05    0.11081E-04  7775   0.110E-03    0.272E-04
RMM:  17    -0.102407541508E+03    0.48058E-05    0.17885E-04  7408   0.823E-04    0.156E-04
RMM:  18    -0.102407533214E+03    0.82938E-05    0.30127E-04  6033   0.622E-04    0.326E-04
RMM:  19    -0.102407517928E+03    0.15285E-04    0.53912E-04  5662   0.513E-04    0.587E-04
RMM:  20    -0.102407486749E+03    0.31180E-04    0.10521E-03  5551   0.449E-04    0.117E-03
RMM:  21    -0.102407424051E+03    0.62698E-04    0.21439E-03  5446   0.338E-04    0.233E-03
RMM:  22    -0.102407273928E+03    0.15012E-03    0.47279E-03  5423   0.135E-04    0.485E-03
RMM:  23    -0.102407043138E+03    0.23079E-03    0.10555E-02  5346  -0.523E-04    0.882E-03
RMM:  24    -0.102407029218E+03    0.13920E-04    0.10964E-02  5363  -0.137E-03    0.843E-03
RMM:  25    -0.102406797550E+03    0.23167E-03    0.10500E-02  5171  -0.134E-03    0.113E-02
RMM:  26    -0.102405720232E+03    0.10773E-02    0.21183E-02  5376  -0.269E-03    0.197E-02
RMM:  27    -0.102406900666E+03   -0.11804E-02    0.62820E-02  5823  -0.668E-03    0.343E-02
RMM:  28    -0.102406728546E+03    0.17212E-03   -0.44962E-01  7723   0.288E-02    0.510E-02
RMM:  29    -0.102433502925E+03   -0.26774E-01   -0.59255E-01  8072   0.431E-02    0.235E-01
RMM:  30    -0.102490988232E+03   -0.57485E-01   -0.23288E+00  9290   0.182E-01    0.419E-01
RMM:  31    -0.102490049261E+03    0.93897E-03   -0.44551E+00  9918   0.333E-01    0.466E-01
RMM:  32    -0.102583304148E+03   -0.93255E-01   -0.48679E+00 10085   0.376E-01    0.529E-01
RMM:  33    -0.102610538520E+03   -0.27234E-01   -0.62457E+00 10324   0.453E-01    0.509E-01
RMM:  34    -0.102615274851E+03   -0.47363E-02   -0.64093E+00 10033   0.445E-01    0.740E-01
RMM:  35    -0.102625076565E+03   -0.98017E-02   -0.90865E+00 10469   0.643E-01    0.620E-01
RMM:  36    -0.102724373712E+03   -0.99297E-01   -0.71500E+00 10684   0.526E-01    0.740E-01
RMM:  37    -0.102590232134E+03    0.13414E+00   -0.95812E+00 10546   0.674E-01    0.524E-01
RMM:  38    -0.102607259755E+03   -0.17028E-01   -0.43907E+00 10375   0.374E-01    0.594E-01
RMM:  39    -0.102544682356E+03    0.62577E-01   -0.75604E+00 10275   0.531E-01    0.334E-01
RMM:  40    -0.102496089499E+03    0.48593E-01   -0.44126E+00 10034   0.298E-01    0.286E-01
RMM:  41    -0.102453553733E+03    0.42536E-01   -0.38072E+00  9988   0.260E-01    0.243E-01
RMM:  42    -0.102506273840E+03   -0.52720E-01   -0.22440E+00  9606   0.182E-01    0.376E-01
RMM:  43    -0.102495430088E+03    0.10844E-01   -0.45157E+00  9578   0.318E-01    0.426E-01
RMM:  44    -0.102533411619E+03   -0.37982E-01   -0.52647E+00 10160   0.372E-01    0.400E-01
RMM:  45    -0.102529615667E+03    0.37960E-02   -0.45152E+00  9784   0.338E-01    0.454E-01
RMM:  46    -0.102527588366E+03    0.20273E-02   -0.53453E+00  9999   0.387E-01    0.447E-01
RMM:  47    -0.102556332300E+03   -0.28744E-01   -0.55541E+00  9730   0.392E-01    0.333E-01
RMM:  48    -0.102592350959E+03   -0.36019E-01   -0.33787E+00 10252   0.266E-01    0.466E-01
RMM:  49    -0.102488956144E+03    0.10339E+00   -0.49538E+00  9742   0.371E-01    0.267E-01
RMM:  50    -0.102520637847E+03   -0.31682E-01   -0.35394E+00 10103   0.240E-01    0.422E-01
RMM:  51    -0.102613364273E+03   -0.92726E-01   -0.42525E+00  9754   0.332E-01    0.645E-01
RMM:  52    -0.102467899637E+03    0.14546E+00   -0.84658E+00 10409   0.585E-01    0.309E-01
RMM:  53    -0.102498563254E+03   -0.30664E-01   -0.39965E+00  9966   0.274E-01    0.386E-01
RMM:  54    -0.102604590188E+03   -0.10603E+00   -0.48264E+00  9965   0.340E-01    0.509E-01
RMM:  55    -0.102537070306E+03    0.67520E-01   -0.67016E+00  9688   0.463E-01    0.444E-01
RMM:  56    -0.102580973509E+03   -0.43903E-01   -0.49227E+00 10250   0.368E-01    0.494E-01
RMM:  57    -0.102547181043E+03    0.33792E-01   -0.60372E+00  9732   0.431E-01    0.353E-01
RMM:  58    -0.102471749796E+03    0.75431E-01   -0.48217E+00  9978   0.329E-01    0.279E-01
RMM:  59    -0.102526034465E+03   -0.54285E-01   -0.33245E+00  9923   0.240E-01    0.436E-01
RMM:  60    -0.102507595435E+03    0.18439E-01   -0.50762E+00  9980   0.371E-01    0.481E-01
RMM:  61    -0.102518873262E+03   -0.11278E-01   -0.57493E+00  9713   0.407E-01    0.466E-01
RMM:  62    -0.102530676555E+03   -0.11803E-01   -0.49370E+00 10105   0.376E-01    0.420E-01
RMM:  63    -0.102537231986E+03   -0.65554E-02   -0.43144E+00  9723   0.328E-01    0.336E-01
RMM:  64    -0.102487800540E+03    0.49431E-01   -0.33373E+00  9931   0.256E-01    0.430E-01
RMM:  65    -0.102463321897E+03    0.24479E-01   -0.58374E+00  9873   0.403E-01    0.335E-01
RMM:  66    -0.102513465010E+03   -0.50143E-01   -0.39070E+00  9992   0.283E-01    0.390E-01
RMM:  67    -0.102484144007E+03    0.29321E-01   -0.46743E+00  9844   0.335E-01    0.315E-01
RMM:  68    -0.102523987906E+03   -0.39844E-01   -0.30660E+00 10038   0.230E-01    0.431E-01
RMM:  69    -0.102530206781E+03   -0.62189E-02   -0.56044E+00  9629   0.386E-01    0.440E-01
RMM:  70    -0.102553253291E+03   -0.23047E-01   -0.55317E+00 10041   0.388E-01    0.368E-01
RMM:  71    -0.102514634840E+03    0.38618E-01   -0.46276E+00  9844   0.325E-01    0.325E-01
RMM:  72    -0.102515637847E+03   -0.10030E-02   -0.37704E+00 12299   0.282E-01    0.425E-01
RMM:  73    -0.102550251457E+03   -0.34614E-01   -0.40462E+00 11221   0.331E-01    0.397E-01
RMM:  74    -0.102499498851E+03    0.50753E-01   -0.53900E+00 10867   0.368E-01    0.429E-01
RMM:  75    -0.102535824295E+03   -0.36325E-01   -0.53133E+00 11022   0.380E-01    0.391E-01
RMM:  76    -0.102488368083E+03    0.47456E-01   -0.53894E+00  9816   0.368E-01    0.373E-01
RMM:  77    -0.102542395057E+03   -0.54027E-01   -0.45616E+00 11979   0.332E-01    0.517E-01
RMM:  78    -0.102596808577E+03   -0.54414E-01   -0.58067E+00 10785   0.432E-01    0.508E-01
RMM:  79    -0.102572162262E+03    0.24646E-01   -0.58331E+00 10103   0.434E-01    0.473E-01
RMM:  80    -0.102501674630E+03    0.70488E-01   -0.62803E+00 10962   0.429E-01
   2 F= -.10250167E+03 E0= -.10251399E+03  d E =-.216410E+01
       N       E                     dE             d eps       ncg     rms          rms(c)
DAV:   1    -0.922942466857E+02    0.10278E+02   -0.54892E+03 11264   0.157E+02    0.361E+00
RMM:   2    -0.102997610782E+03   -0.10703E+02   -0.11006E+02 11264   0.189E+01    0.173E+00
RMM:   3    -0.103172117332E+03   -0.17451E+00   -0.43093E+00 12650   0.474E+00    0.123E+00
RMM:   4    -0.103226109835E+03   -0.53993E-01   -0.68286E-01 12376   0.144E+00    0.619E-01
RMM:   5    -0.103235694373E+03   -0.95845E-02   -0.98065E-02 11951   0.677E-01    0.197E-01
RMM:   6    -0.103237258653E+03   -0.15643E-02   -0.12405E-02 13241   0.184E-01    0.993E-02
RMM:   7    -0.103238022390E+03   -0.76374E-03   -0.16043E-03 12190   0.715E-02    0.607E-02
RMM:   8    -0.103239215695E+03   -0.11933E-02   -0.10723E-03 11602   0.433E-02    0.341E-02
RMM:   9    -0.103239633281E+03   -0.41759E-03   -0.29374E-04 11993   0.248E-02    0.168E-02
RMM:  10    -0.103239647411E+03   -0.14130E-04   -0.67223E-05 11621   0.152E-02    0.104E-02
RMM:  11    -0.103239632402E+03    0.15009E-04   -0.28219E-05 10730   0.833E-03    0.577E-03
RMM:  12    -0.103239624332E+03    0.80693E-05   -0.15027E-05 10621   0.534E-03    0.341E-03
RMM:  13    -0.103239623066E+03    0.12658E-05   -0.22627E-06 10047   0.321E-03    0.120E-03
RMM:  14    -0.103239623000E+03    0.66048E-07   -0.58140E-07  8022   0.145E-03
   3 F= -.10323962E+03 E0= -.10326894E+03  d E =-.290205E+01
       N       E                     dE             d eps       ncg     rms          rms(c)
DAV:   1    -0.101118124810E+03    0.21215E+01   -0.96361E+02 11264   0.466E+01    0.214E+00
RMM:   2    -0.103845326261E+03   -0.27272E+01   -0.28879E+01 11264   0.861E+00    0.733E-01
RMM:   3    -0.104036227181E+03   -0.19090E+00   -0.24433E+00 13833   0.275E+00    0.758E-01
RMM:   4    -0.104035235627E+03    0.99155E-03   -0.38515E-02 13045   0.404E-01    0.557E-01
RMM:   5    -0.104034569458E+03    0.66617E-03   -0.21641E-02 11264   0.287E-01    0.130E-01
RMM:   6    -0.104034875632E+03   -0.30617E-03   -0.66067E-03 13504   0.138E-01    0.923E-02
RMM:   7    -0.104034540175E+03    0.33546E-03   -0.50400E-04 11843   0.367E-02    0.648E-02
RMM:   8    -0.104034394578E+03    0.14560E-03   -0.12277E-03 11327   0.632E-02    0.291E-02
RMM:   9    -0.104034354716E+03    0.39862E-04   -0.10430E-04 12970   0.227E-02    0.145E-02
RMM:  10    -0.104034341178E+03    0.13538E-04   -0.24621E-05 11133   0.791E-03    0.774E-03
RMM:  11    -0.104034329648E+03    0.11530E-04   -0.10837E-05 10951   0.525E-03    0.405E-03
RMM:  12    -0.104034323257E+03    0.63910E-05   -0.41697E-06  9755   0.320E-03    0.290E-03
RMM:  13    -0.104034321999E+03    0.12580E-05   -0.22639E-06  9050   0.305E-03    0.808E-04
RMM:  14    -0.104034321868E+03    0.13088E-06   -0.16484E-07  8034   0.102E-03
   4 F= -.10403432E+03 E0= -.10405752E+03  d E =-.369674E+01
       N       E                     dE             d eps       ncg     rms          rms(c)
DAV:   1    -0.104015874656E+03    0.18447E-01   -0.31647E+01 12544   0.688E+00    0.376E-01
RMM:   2    -0.104089213428E+03   -0.73339E-01   -0.76488E-01 11313   0.149E+00    0.153E-01
RMM:   3    -0.104093042582E+03   -0.38292E-02   -0.80206E-02 13768   0.550E-01    0.111E-01
RMM:   4    -0.104093063529E+03   -0.20947E-04   -0.17063E-03 11840   0.890E-02    0.633E-02
RMM:   5    -0.104093143427E+03   -0.79898E-04   -0.60239E-04 12180   0.383E-02    0.272E-02
RMM:   6    -0.104093126032E+03    0.17396E-04   -0.43780E-05 12289   0.143E-02    0.176E-02
RMM:   7    -0.104093110912E+03    0.15120E-04   -0.36634E-05 11617   0.115E-02    0.628E-03
RMM:   8    -0.104093110294E+03    0.61835E-06   -0.13938E-05 11327   0.682E-03    0.457E-03
RMM:   9    -0.104093110404E+03   -0.11063E-06   -0.17813E-06  9135   0.282E-03
   5 F= -.10409311E+03 E0= -.10411717E+03  d E =-.375553E+01
       N       E                     dE             d eps       ncg     rms          rms(c)
DAV:   1    -0.104111051926E+03   -0.17942E-01   -0.12421E+02 11776   0.137E+01    0.629E-01
RMM:   2    -0.104406883372E+03   -0.29583E+00   -0.30333E+00 11382   0.288E+00    0.284E-01
RMM:   3    -0.104425902920E+03   -0.19020E-01   -0.31291E-01 13663   0.105E+00    0.249E-01
RMM:   4    -0.104425565731E+03    0.33719E-03   -0.51739E-03 12721   0.147E-01    0.171E-01
RMM:   5    -0.104425599665E+03   -0.33935E-04   -0.34590E-03 11306   0.107E-01    0.554E-02
RMM:   6    -0.104425561417E+03    0.38248E-04   -0.64035E-04 12883   0.450E-02    0.446E-02
RMM:   7    -0.104425467292E+03    0.94125E-04   -0.15851E-04 11710   0.229E-02    0.195E-02
RMM:   8    -0.104425448160E+03    0.19133E-04   -0.14333E-04 11155   0.213E-02    0.123E-02
RMM:   9    -0.104425440469E+03    0.76910E-05   -0.14697E-05 11806   0.905E-03    0.481E-03
RMM:  10    -0.104425437933E+03    0.25356E-05   -0.28536E-06  9509   0.334E-03    0.329E-03
RMM:  11    -0.104425434029E+03    0.39043E-05   -0.37069E-06  9349   0.347E-03    0.191E-03
RMM:  12    -0.104425433665E+03    0.36431E-06   -0.91028E-07  8485   0.221E-03
   6 F= -.10442543E+03 E0= -.10444899E+03  d E =-.332323E+00
       N       E                     dE             d eps       ncg     rms          rms(c)
DAV:   1    -0.104153789625E+03    0.27164E+00   -0.15871E+02 12416   0.157E+01    0.728E-01
RMM:   2    -0.104537200244E+03   -0.38341E+00   -0.39356E+00 11284   0.327E+00    0.320E-01
RMM:   3    -0.104563819666E+03   -0.26619E-01   -0.40628E-01 13680   0.118E+00    0.281E-01
RMM:   4    -0.104563428536E+03    0.39113E-03   -0.69066E-03 12808   0.173E-01    0.183E-01
RMM:   5    -0.104563588435E+03   -0.15990E-03   -0.42872E-03 11288   0.121E-01    0.668E-02
RMM:   6    -0.104563518088E+03    0.70346E-04   -0.76309E-04 12922   0.484E-02    0.538E-02
RMM:   7    -0.104563401727E+03    0.11636E-03   -0.13007E-04 11492   0.220E-02    0.328E-02
RMM:   8    -0.104563344917E+03    0.56810E-04   -0.24317E-04 11287   0.295E-02    0.133E-02
RMM:   9    -0.104563336964E+03    0.79529E-05   -0.23068E-05 12474   0.917E-03    0.654E-03
RMM:  10    -0.104563333108E+03    0.38556E-05   -0.11498E-05 10852   0.703E-03    0.390E-03
RMM:  11    -0.104563327808E+03    0.53007E-05   -0.54102E-06 10483   0.463E-03    0.215E-03
RMM:  12    -0.104563327476E+03    0.33144E-06   -0.84936E-07  8746   0.215E-03
   7 F= -.10456333E+03 E0= -.10458536E+03  d E =-.470217E+00
       N       E                     dE             d eps       ncg     rms          rms(c)
DAV:   1    -0.104547826374E+03    0.15501E-01   -0.47310E+01 16384   0.770E+00    0.380E-01
RMM:   2    -0.104651264605E+03   -0.10344E+00   -0.10542E+00 11333   0.158E+00    0.169E-01
RMM:   3    -0.104658675190E+03   -0.74106E-02   -0.10829E-01 13692   0.558E-01    0.137E-01
RMM:   4    -0.104658748552E+03   -0.73362E-04   -0.21539E-03 12834   0.911E-02    0.823E-02
RMM:   5    -0.104658830617E+03   -0.82065E-04   -0.77765E-04 11499   0.447E-02    0.368E-02
RMM:   6    -0.104658789468E+03    0.41149E-04   -0.13192E-04 12951   0.211E-02    0.239E-02
RMM:   7    -0.104658762997E+03    0.26470E-04   -0.48557E-05 11764   0.133E-02    0.914E-03
RMM:   8    -0.104658760890E+03    0.21066E-05   -0.31964E-05 11340   0.963E-03    0.544E-03
RMM:   9    -0.104658760791E+03    0.98978E-07   -0.39297E-06 10529   0.471E-03
   8 F= -.10465876E+03 E0= -.10468084E+03  d E =-.954333E-01
       N       E                     dE             d eps       ncg     rms          rms(c)
DAV:   1    -0.104546530888E+03    0.11223E+00   -0.64461E+01 12032   0.902E+00    0.451E-01
RMM:   2    -0.104690932248E+03   -0.14440E+00   -0.14728E+00 11402   0.189E+00    0.199E-01
RMM:   3    -0.104700506895E+03   -0.95746E-02   -0.14954E-01 13694   0.687E-01    0.161E-01
RMM:   4    -0.104700586204E+03   -0.79309E-04   -0.30147E-03 12959   0.108E-01    0.966E-02
RMM:   5    -0.104700704407E+03   -0.11820E-03   -0.10878E-03 11402   0.533E-02    0.435E-02
RMM:   6    -0.104700651165E+03    0.53242E-04   -0.17921E-04 13040   0.247E-02    0.283E-02
RMM:   7    -0.104700615463E+03    0.35702E-04   -0.63393E-05 11850   0.152E-02    0.115E-02
RMM:   8    -0.104700612110E+03    0.33531E-05   -0.47833E-05 11334   0.119E-02    0.642E-03
RMM:   9    -0.104700611747E+03    0.36282E-06   -0.56118E-06 10976   0.567E-03
   9 F= -.10470061E+03 E0= -.10472266E+03  d E =-.137284E+00
       N       E                     dE             d eps       ncg     rms          rms(c)
DAV:   1    -0.104706123614E+03   -0.55115E-02   -0.18157E+01 13312   0.516E+00    0.263E-01
RMM:   2    -0.104745801381E+03   -0.39678E-01   -0.40966E-01 11408   0.109E+00    0.122E-01
RMM:   3    -0.104747585548E+03   -0.17842E-02   -0.40951E-02 13787   0.396E-01    0.926E-02
RMM:   4    -0.104747586975E+03   -0.14270E-05   -0.87365E-04 12437   0.625E-02    0.543E-02
RMM:   5    -0.104747631290E+03   -0.44315E-04   -0.35109E-04 11864   0.310E-02    0.164E-02
RMM:   6    -0.104747621631E+03    0.96590E-05   -0.31351E-05 12782   0.126E-02    0.110E-02
RMM:   7    -0.104747616011E+03    0.56206E-05   -0.10144E-05 11606   0.652E-03    0.523E-03
RMM:   8    -0.104747614767E+03    0.12439E-05   -0.67184E-06 10880   0.462E-03    0.266E-03
RMM:   9    -0.104747615035E+03   -0.26802E-06   -0.95625E-07  8240   0.208E-03
  10 F= -.10474762E+03 E0= -.10477061E+03  d E =-.470033E-01
       N       E                     dE             d eps       ncg     rms          rms(c)
DAV:   1    -0.104607737294E+03    0.13988E+00   -0.72142E+01 11264   0.105E+01    0.539E-01
RMM:   2    -0.104777413972E+03   -0.16968E+00   -0.17468E+00 11378   0.223E+00    0.246E-01
RMM:   3    -0.104785296528E+03   -0.78826E-02   -0.17969E-01 13764   0.837E-01    0.197E-01
RMM:   4    -0.104785172800E+03    0.12373E-03   -0.34327E-03 12647   0.124E-01    0.125E-01
RMM:   5    -0.104785313629E+03   -0.14083E-03   -0.17062E-03 11266   0.771E-02    0.395E-02
RMM:   6    -0.104785291256E+03    0.22373E-04   -0.27330E-04 13844   0.320E-02    0.282E-02
RMM:   7    -0.104785261169E+03    0.30087E-04   -0.68509E-05 11740   0.174E-02    0.125E-02
RMM:   8    -0.104785256393E+03    0.47758E-05   -0.36410E-05 11243   0.110E-02    0.623E-03
RMM:   9    -0.104785257119E+03   -0.72594E-06   -0.48487E-06 11172   0.447E-03
  11 F= -.10478526E+03 E0= -.10480942E+03  d E =-.846454E-01
       N       E                     dE             d eps       ncg     rms          rms(c)
DAV:   1    -0.104785470240E+03   -0.21385E-03   -0.13606E+01 16896   0.446E+00    0.202E-01
RMM:   2    -0.104814784145E+03   -0.29314E-01   -0.29779E-01 11559   0.939E-01    0.957E-02
RMM:   3    -0.104816888863E+03   -0.21047E-02   -0.31060E-02 13680   0.322E-01    0.776E-02
RMM:   4    -0.104816905977E+03   -0.17114E-04   -0.62171E-04 12076   0.535E-02    0.408E-02
RMM:   5    -0.104816944849E+03   -0.38872E-04   -0.23776E-04 12041   0.250E-02    0.171E-02
RMM:   6    -0.104816932312E+03    0.12537E-04   -0.17050E-05 12364   0.103E-02    0.106E-02
RMM:   7    -0.104816925979E+03    0.63328E-05   -0.11913E-05 11839   0.692E-03    0.347E-03
RMM:   8    -0.104816925094E+03    0.88508E-06   -0.41483E-06  9554   0.377E-03
  12 F= -.10481693E+03 E0= -.10484079E+03  d E =-.316680E-01
       N       E                     dE             d eps       ncg     rms          rms(c)
DAV:   1    -0.104558825236E+03    0.25810E+00   -0.12399E+02 11264   0.140E+01    0.638E-01
RMM:   2    -0.104859202944E+03   -0.30038E+00   -0.30553E+00 11347   0.296E+00    0.293E-01
RMM:   3    -0.104879371158E+03   -0.20168E-01   -0.32360E-01 13870   0.108E+00    0.261E-01
RMM:   4    -0.104879223303E+03    0.14786E-03   -0.56484E-03 12709   0.160E-01    0.151E-01
RMM:   5    -0.104879659620E+03   -0.43632E-03   -0.30037E-03 11264   0.106E-01    0.662E-02
RMM:   6    -0.104879569488E+03    0.90132E-04   -0.50203E-04 13627   0.422E-02    0.431E-02
RMM:   7    -0.104879492861E+03    0.76627E-04   -0.12781E-04 11940   0.237E-02    0.160E-02
RMM:   8    -0.104879486628E+03    0.62329E-05   -0.93139E-05 11448   0.182E-02    0.104E-02
RMM:   9    -0.104879485744E+03    0.88365E-06   -0.10690E-05 12395   0.649E-03    0.637E-03
RMM:  10    -0.104879486167E+03   -0.42241E-06   -0.76099E-06 11016   0.592E-03
  13 F= -.10487949E+03 E0= -.10490241E+03  d E =-.942290E-01
       N       E                     dE             d eps       ncg     rms          rms(c)
DAV:   1    -0.103334346674E+03    0.15451E+01   -0.52005E+02 11264   0.313E+01    0.133E+00
RMM:   2    -0.104766532924E+03   -0.14322E+01   -0.14543E+01 11264   0.615E+00    0.602E-01
RMM:   3    -0.104863491062E+03   -0.96958E-01   -0.13597E+00 13801   0.212E+00    0.549E-01
RMM:   4    -0.104862602843E+03    0.88822E-03   -0.24232E-02 13104   0.329E-01    0.357E-01
RMM:   5    -0.104864224619E+03   -0.16218E-02   -0.16242E-02 11264   0.251E-01    0.132E-01
RMM:   6    -0.104864058926E+03    0.16569E-03   -0.27946E-03 13708   0.943E-02    0.944E-02
RMM:   7    -0.104863728444E+03    0.33048E-03   -0.50485E-04 11996   0.469E-02    0.418E-02
RMM:   8    -0.104863692785E+03    0.35659E-04   -0.66187E-04 11597   0.503E-02    0.237E-02
RMM:   9    -0.104863677048E+03    0.15738E-04   -0.78956E-05 12047   0.226E-02    0.541E-03
RMM:  10    -0.104863676385E+03    0.66329E-06   -0.89850E-06 11349   0.548E-03
  14 F= -.10486368E+03 E0= -.10488460E+03  d E =-.784193E-01
       N       E                     dE             d eps       ncg     rms          rms(c)
DAV:   1    -0.104455700802E+03    0.40798E+00   -0.16667E+02 11264   0.163E+01    0.751E-01
RMM:   2    -0.104868547811E+03   -0.41285E+00   -0.41958E+00 11326   0.341E+00    0.341E-01
RMM:   3    -0.104895174591E+03   -0.26627E-01   -0.43998E-01 13900   0.126E+00    0.304E-01
RMM:   4    -0.104894927978E+03    0.24661E-03   -0.77933E-03 12664   0.186E-01    0.182E-01
RMM:   5    -0.104895522681E+03   -0.59470E-03   -0.43210E-03 11264   0.126E-01    0.750E-02
RMM:   6    -0.104895431013E+03    0.91668E-04   -0.70163E-04 13756   0.482E-02    0.503E-02
RMM:   7    -0.104895329280E+03    0.10173E-03   -0.13978E-04 11908   0.247E-02    0.219E-02
RMM:   8    -0.104895317168E+03    0.12112E-04   -0.15579E-04 11396   0.240E-02    0.119E-02
RMM:   9    -0.104895317148E+03    0.20671E-07   -0.15869E-05 12957   0.820E-03    0.587E-03
RMM:  10    -0.104895317602E+03   -0.45386E-06   -0.56433E-06 10868   0.496E-03
  15 F= -.10489532E+03 E0= -.10491740E+03  d E =-.110060E+00
       N       E                     dE             d eps       ncg     rms          rms(c)
DAV:   1    -0.104824466902E+03    0.70850E-01   -0.48051E+01 12288   0.857E+00    0.399E-01
RMM:   2    -0.104934233137E+03   -0.10977E+00   -0.11145E+00 11416   0.181E+00    0.182E-01
RMM:   3    -0.104941239642E+03   -0.70065E-02   -0.11728E-01 13877   0.658E-01    0.152E-01
RMM:   4    -0.104941244745E+03   -0.51036E-05   -0.23431E-03 12277   0.104E-01    0.819E-02
RMM:   5    -0.104941418708E+03   -0.17396E-03   -0.93196E-04 11276   0.555E-02    0.371E-02
RMM:   6    -0.104941387062E+03    0.31647E-04   -0.14407E-04 13393   0.229E-02    0.244E-02
RMM:   7    -0.104941359398E+03    0.27664E-04   -0.48247E-05 11971   0.146E-02    0.805E-03
RMM:   8    -0.104941358708E+03    0.68933E-06   -0.32174E-05 11412   0.106E-02    0.699E-03
RMM:   9    -0.104941358888E+03   -0.17996E-06   -0.43901E-06 10867   0.543E-03
  16 F= -.10494136E+03 E0= -.10496345E+03  d E =-.460413E-01
       N       E                     dE             d eps       ncg     rms          rms(c)
DAV:   1    -0.104490211625E+03    0.45115E+00   -0.18396E+02 11264   0.174E+01    0.806E-01
RMM:   2    -0.104955086529E+03   -0.46487E+00   -0.47200E+00 11287   0.364E+00    0.364E-01
RMM:   3    -0.104984709688E+03   -0.29623E-01   -0.48660E-01 13825   0.134E+00    0.318E-01
RMM:   4    -0.104984405301E+03    0.30439E-03   -0.91209E-03 12599   0.205E-01    0.185E-01
RMM:   5    -0.104985086109E+03   -0.68081E-03   -0.48924E-03 11264   0.136E-01    0.857E-02
RMM:   6    -0.104984963447E+03    0.12266E-03   -0.80277E-04 13565   0.524E-02    0.555E-02
RMM:   7    -0.104984838883E+03    0.12456E-03   -0.20631E-04 11952   0.306E-02    0.205E-02
RMM:   8    -0.104984836400E+03    0.24825E-05   -0.19480E-04 11568   0.272E-02    0.158E-02
RMM:   9    -0.104984832809E+03    0.35917E-05   -0.27425E-05 11970   0.134E-02    0.270E-03
RMM:  10    -0.104984833466E+03   -0.65715E-06   -0.20083E-06  8863   0.306E-03
  17 F= -.10498483E+03 E0= -.10500691E+03  d E =-.895159E-01
       N       E                     dE             d eps       ncg     rms          rms(c)
DAV:   1    -0.104967771708E+03    0.17061E-01   -0.80094E+00 16896   0.347E+00    0.158E-01
RMM:   2    -0.104985092104E+03   -0.17320E-01   -0.17560E-01 11517   0.728E-01    0.743E-02
RMM:   3    -0.104986213486E+03   -0.11214E-02   -0.17718E-02 13633   0.249E-01    0.575E-02
RMM:   4    -0.104986234101E+03   -0.20616E-04   -0.38863E-04 12030   0.425E-02    0.291E-02
RMM:   5    -0.104986260813E+03   -0.26712E-04   -0.12996E-04 12183   0.180E-02    0.121E-02
RMM:   6    -0.104986254212E+03    0.66017E-05   -0.91724E-06 12104   0.789E-03    0.671E-03
RMM:   7    -0.104986251402E+03    0.28095E-05   -0.64013E-06 11315   0.497E-03    0.204E-03
RMM:   8    -0.104986251250E+03    0.15194E-06   -0.16779E-06  8588   0.254E-03
  18 F= -.10498625E+03 E0= -.10500831E+03  d E =-.909336E-01
       N       E                     dE             d eps       ncg     rms          rms(c)
DAV:   1    -0.104966371177E+03    0.19880E-01   -0.16096E+01 11776   0.495E+00    0.232E-01
RMM:   2    -0.105001837216E+03   -0.35466E-01   -0.36194E-01 11496   0.106E+00    0.108E-01
RMM:   3    -0.105003766698E+03   -0.19295E-02   -0.37633E-02 13803   0.386E-01    0.841E-02
RMM:   4    -0.105003798907E+03   -0.32209E-04   -0.78823E-04 12303   0.603E-02    0.425E-02
RMM:   5    -0.105003840564E+03   -0.41657E-04   -0.25745E-04 12349   0.266E-02    0.168E-02
RMM:   6    -0.105003828427E+03    0.12137E-04   -0.19938E-05 12391   0.109E-02    0.934E-03
RMM:   7    -0.105003823447E+03    0.49792E-05   -0.11770E-05 11873   0.702E-03    0.314E-03
RMM:   8    -0.105003823113E+03    0.33427E-06   -0.37158E-06  9659   0.373E-03
  19 F= -.10500382E+03 E0= -.10502593E+03  d E =-.175719E-01
       N       E                     dE             d eps       ncg     rms          rms(c)
DAV:   1    -0.104989347043E+03    0.14476E-01   -0.82071E+00 13824   0.353E+00    0.164E-01
RMM:   2    -0.105007163191E+03   -0.17816E-01   -0.18169E-01 11441   0.742E-01    0.767E-02
RMM:   3    -0.105008163798E+03   -0.10006E-02   -0.18588E-02 13815   0.267E-01    0.586E-02
RMM:   4    -0.105008187139E+03   -0.23341E-04   -0.40203E-04 12002   0.423E-02    0.288E-02
RMM:   5    -0.105008206619E+03   -0.19480E-04   -0.12243E-04 12305   0.177E-02    0.111E-02
RMM:   6    -0.105008200485E+03    0.61341E-05   -0.93088E-06 12158   0.777E-03    0.608E-03
RMM:   7    -0.105008198031E+03    0.24538E-05   -0.52984E-06 11275   0.463E-03    0.213E-03
RMM:   8    -0.105008197751E+03    0.28033E-06   -0.14507E-06  8328   0.251E-03
  20 F= -.10500820E+03 E0= -.10503031E+03  d E =-.219465E-01
