Tetradymite Slab                        
           1
     3.854579    0.000000   -6.676326
    -0.000000   31.937661   -4.450884
     0.000000    0.000000   17.803536
   Bi   Te
  12  18
Direct configuration=     1
   0.66666700  0.26914537  0.02561972
   0.66666700  0.06418863  0.22438053
   0.00000000  0.60247837  0.10895297
   0.00000000  0.39752163  0.05771378
   0.33333300  0.93581137  0.19228622
   0.33333300  0.73085463  0.14104703
   0.66666700  0.26914537  0.27561972
   0.66666700  0.06418863  0.47438053
   0.00000000  0.60247837  0.35895297
   0.00000000  0.39752163  0.30771378
   0.33333300  0.93581137  0.44228622
   0.33333300  0.73085463  0.39104703
   0.33333300  0.11815279  0.23787157
   0.00000000  0.00000000  0.20833338
   0.00000000  0.21518021  0.01212843
   0.66666700  0.45148679  0.07120507
   0.33333300  0.33333300  0.04166663
   0.33333300  0.54851321  0.09546168
   0.00000000  0.78481979  0.15453832
   0.66666700  0.66666700  0.12500012
   0.66666700  0.88184721  0.17879518
   0.33333300  0.11815279  0.48787157
   0.00000000  0.00000000  0.45833338
   0.00000000  0.21518021  0.26212843
   0.66666700  0.45148679  0.32120507
   0.33333300  0.33333300  0.29166663
   0.33333300  0.54851321  0.34546168
   0.00000000  0.78481979  0.40453832
   0.66666700  0.66666700  0.37500012
   0.66666700  0.88184721  0.42879518
Direct configuration=     2
   0.68694420  0.26853350  0.03458241
   0.66666700  0.06418863  0.22438053
   0.02039107  0.60185860  0.11771362
   0.01608341  0.39815871  0.06723759
   0.35394706  0.93519860  0.20118429
   0.34868174  0.73147574  0.15016819
   0.66666700  0.26914537  0.27561972
   0.66666700  0.06418863  0.47438053
  -0.01575345  0.60182011  0.34972843
  -0.02092756  0.39815370  0.29864859
   0.31747974  0.93517258  0.43291770
   0.31269627  0.73151428  0.38210379
   0.34039562  0.11712676  0.24168559
   0.01552912 -0.00003196  0.21607006
   0.01028508  0.21625342  0.01672006
   0.67419291  0.45040993  0.07535369
   0.33333300  0.33333300  0.04166663
   0.34352187  0.54959719  0.10017446
   0.00747900  0.78373077  0.15867763
   0.68175154  0.66667510  0.13255111
   0.67671636  0.88291734  0.18348353
   0.33333300  0.11815279  0.48787157
   0.00000000  0.00000000  0.45833338
  -0.00712269  0.21624415  0.25832244
   0.65648803  0.45040852  0.31651558
   0.31774102  0.33337866  0.28388132
   0.32618285  0.54956959  0.34145404
  -0.00994465  0.78375311  0.39994750
   0.65150016  0.66667011  0.36743466
   0.65964097  0.88288233  0.42484026
Direct configuration=     3
   0.74246150  0.26685824  0.05912153
   0.66666700  0.06418863  0.22438053
   0.07622014  0.60016170  0.14169956
   0.06011846  0.39990299  0.09331299
   0.41038664  0.93352090  0.22554646
   0.39070531  0.73317630  0.17514114
   0.66666700  0.26914537  0.27561972
   0.66666700  0.06418863  0.47438053
  -0.05888507  0.60001783  0.32447240
  -0.07822548  0.39988425  0.27382884
   0.27407483  0.93342362  0.40726748
   0.25619462  0.73332035  0.35761795
   0.35973247  0.11431757  0.25212805
   0.05804656 -0.00011948  0.23725246
   0.03844478  0.21919179  0.02929157
   0.69479822  0.44746156  0.08671227
   0.33333300  0.33333300  0.04166663
   0.37141815  0.55256505  0.11307765
   0.02795589  0.78074912  0.17001071
   0.72305177  0.66669727  0.15322507
   0.70423068  0.88584726  0.19631984
   0.33333300  0.11815279  0.48787157
   0.00000000  0.00000000  0.45833338
  -0.02662401  0.21915715  0.24790195
   0.62861884  0.44745631  0.30367615
   0.27505148  0.33350368  0.26256580
   0.30660632  0.55246188  0.33048145
  -0.03717226  0.78083262  0.38737819
   0.60997462  0.66667862  0.34672106
   0.64040428  0.88571640  0.41401201
Direct configuration=     4
   0.71507140  0.26768475  0.04701487
   0.66666700  0.06418863  0.22438053
   0.04867622  0.60099888  0.12986582
   0.03839326  0.39904243  0.08044839
   0.38254152  0.93434861  0.21352710
   0.36997249  0.73233731  0.16282045
   0.66666700  0.26914537  0.27561972
   0.66666700  0.06418863  0.47438053
  -0.03760559  0.60090700  0.33693275
  -0.04995689  0.39903046  0.28607395
   0.29548915  0.93428649  0.41992231
   0.28407036  0.73242931  0.36969832
   0.35019241  0.11570352  0.24697614
   0.03707009 -0.00007630  0.22680187
   0.02455187  0.21774211  0.02308927
   0.68463235  0.44891617  0.08110839
   0.33333300  0.33333300  0.04166663
   0.35765520  0.55110082  0.10671171
   0.01785338  0.78222015  0.16441940
   0.70267583  0.66668633  0.14302533
   0.69065617  0.88440175  0.18998689
   0.33333300  0.11815279  0.48787157
   0.00000000  0.00000000  0.45833338
  -0.01700281  0.21771999  0.25304302
   0.64236842  0.44891282  0.31001063
   0.29611286  0.33344200  0.27308206
   0.31626463  0.55103494  0.33589490
  -0.02373920  0.78227348  0.39357940
   0.63046173  0.66667442  0.35694035
   0.64989492  0.88431818  0.41935425
Direct configuration=     5
   0.72026784  0.26752794  0.04931175
   0.66666700  0.06418863  0.22438053
   0.05390185  0.60084005  0.13211091
   0.04251496  0.39920570  0.08288906
   0.38782429  0.93419158  0.21580741
   0.37390592  0.73249648  0.16515793
   0.66666700  0.26914537  0.27561972
   0.66666700  0.06418863  0.47438053
  -0.04164273  0.60073831  0.33456877
  -0.05532000  0.39919244  0.28375081
   0.29142643  0.93412279  0.41752144
   0.27878178  0.73259836  0.36740644
   0.35200235  0.11544057  0.24795356
   0.04104974 -0.00008449  0.22878456
   0.02718763  0.21801715  0.02426597
   0.68656102  0.44864020  0.08217155
   0.33333300  0.33333300  0.04166663
   0.36026630  0.55137862  0.10791946
   0.01977002  0.78194107  0.16548018
   0.70654155  0.66668841  0.14496042
   0.69323152  0.88467599  0.19118838
   0.33333300  0.11815279  0.48787157
   0.00000000  0.00000000  0.45833338
  -0.01882814  0.21799265  0.25206766
   0.63975986  0.44863649  0.30880885
   0.29211710  0.33345370  0.27108691
   0.31443225  0.55130566  0.33486786
  -0.02628772  0.78200012  0.39240291
   0.62657492  0.66667522  0.35500155
   0.64809436  0.88458345  0.41834072
Direct configuration=     6
   0.72509788  0.26820938  0.05068841
   0.66666700  0.06418863  0.22438053
   0.06005494  0.60163455  0.13394485
   0.04199369  0.39829458  0.08360984
   0.40048290  0.93524367  0.22041549
   0.37423854  0.73167918  0.16654011
   0.66666700  0.26914537  0.27561972
   0.66666700  0.06418863  0.47438053
  -0.04099431  0.60159378  0.33348594
  -0.06801668  0.39803414  0.27934815
   0.29141456  0.93498691  0.41626304
   0.27309571  0.73171085  0.36595646
   0.35888636  0.11436734  0.25169134
   0.05465183  0.00024521  0.23479083
   0.04062750  0.21865216  0.02956501
   0.68479582  0.44914545  0.08171655
   0.33333300  0.33333300  0.04166663
   0.35869769  0.55097566  0.10681140
   0.01719672  0.78236998  0.16450441
   0.71272734  0.66669393  0.14805701
   0.69099325  0.88430366  0.18994105
   0.33333300  0.11815279  0.48787157
   0.00000000  0.00000000  0.45833338
  -0.01733244  0.21782301  0.25347539
   0.64216785  0.44901747  0.31012980
   0.28609775  0.33346683  0.26829356
   0.31631396  0.55099462  0.33546180
  -0.02545747  0.78233943  0.39321450
   0.62035688  0.66667379  0.35189845
   0.64931841  0.88420973  0.41853561
Direct configuration=     7
   0.73054528  0.26897791  0.05224104
   0.66666700  0.06418863  0.22438053
   0.06699450  0.60253059  0.13601319
   0.04140580  0.39726700  0.08442274
   0.41475950  0.93643023  0.22561257
   0.37461367  0.73075741  0.16809895
   0.66666700  0.26914537  0.27561972
   0.66666700  0.06418863  0.47438053
  -0.04026302  0.60255859  0.33226469
  -0.08233622  0.39672778  0.27438275
   0.29140118  0.93596148  0.41484379
   0.26668286  0.73070991  0.36432115
   0.36665025  0.11315694  0.25590688
   0.06999250  0.00061706  0.24156480
   0.05578522  0.21936834  0.03554135
   0.68280501  0.44971527  0.08120338
   0.33333300  0.33333300  0.04166663
   0.35692859  0.55052120  0.10556172
   0.01429450  0.78285373  0.16340391
   0.71970378  0.66670015  0.15154939
   0.68846889  0.88388373  0.18853429
   0.33333300  0.11815279  0.48787157
   0.00000000  0.00000000  0.45833338
  -0.01564557  0.21763169  0.25506305
   0.64488363  0.44944715  0.31161958
   0.27930903  0.33348163  0.26514318
   0.31843618  0.55064383  0.33613166
  -0.02452111  0.78272212  0.39412983
   0.61334407  0.66667218  0.34839872
   0.65069892  0.88378824  0.41875541
Direct configuration=     8
   0.73060032  0.26895322  0.05233338
   0.66666700  0.06418863  0.22438053
   0.06705719  0.60233240  0.13504482
   0.03921478  0.39755285  0.08407242
   0.42522735  0.93712470  0.22885339
   0.37105154  0.73098941  0.16728702
   0.66666700  0.26914537  0.27561972
   0.66666700  0.06418863  0.47438053
  -0.03754856  0.60231821  0.33274598
  -0.09367973  0.39604391  0.27060871
   0.29407104  0.93568248  0.41544959
   0.26609765  0.73099588  0.36489689
   0.36979772  0.11259019  0.25741035
   0.07709714  0.00155103  0.24404984
   0.06412632  0.21935532  0.03885419
   0.68219614  0.44989169  0.08122013
   0.33333300  0.33333300  0.04166663
   0.35893069  0.55061723  0.10585003
   0.01344419  0.78271610  0.16369098
   0.71476978  0.66668754  0.14908041
   0.68966170  0.88401059  0.18854378
   0.33333300  0.11815279  0.48787157
   0.00000000  0.00000000  0.45833338
  -0.01448834  0.21778881  0.25570418
   0.64263000  0.44928454  0.31123230
   0.28225453  0.33343966  0.26710463
   0.31971193  0.55066634  0.33617469
  -0.02581517  0.78266069  0.39412072
   0.61849446  0.66666423  0.35097482
   0.65194042  0.88354715  0.41902595
Direct configuration=     9
   0.73066442  0.26892446  0.05244091
   0.66666700  0.06418863  0.22438053
   0.06713019  0.60210159  0.13391707
   0.03666316  0.39788575  0.08366445
   0.43741798  0.93793347  0.23262758
   0.36690315  0.73125958  0.16634146
   0.66666700  0.26914537  0.27561972
   0.66666700  0.06418863  0.47438053
  -0.03438736  0.60203826  0.33330647
  -0.10689013  0.39524749  0.26621355
   0.29718032  0.93535757  0.41615508
   0.26541612  0.73132892  0.36556740
   0.37346318  0.11193016  0.25916127
   0.08537105  0.00263872  0.24694386
   0.07384019  0.21934017  0.04271225
   0.68148707  0.45009714  0.08123964
   0.33333300  0.33333300  0.04166663
   0.36126229  0.55072906  0.10618578
   0.01245394  0.78255583  0.16402530
   0.70902374  0.66667285  0.14620510
   0.69105083  0.88415833  0.18855483
   0.33333300  0.11815279  0.48787157
   0.00000000  0.00000000  0.45833338
  -0.01314066  0.21797179  0.25645082
   0.64000547  0.44909517  0.31078129
   0.28568479  0.33339077  0.26938890
   0.32119765  0.55069255  0.33622479
  -0.02732221  0.78258915  0.39411011
   0.62449250  0.66665497  0.35397489
   0.65338625  0.88326640  0.41934101
Direct configuration=    10
   0.73290007  0.26879932  0.05347580
   0.66666700  0.06418863  0.22438053
   0.06960913  0.60206433  0.13430266
   0.03309421  0.39811244  0.08357515
   0.43973589  0.93778658  0.23328595
   0.36574728  0.73126020  0.16661278
   0.66666700  0.26914537  0.27561972
   0.66666700  0.06418863  0.47438053
  -0.03248277  0.60206302  0.33335353
  -0.10884497  0.39535775  0.26571576
   0.30125251  0.93501783  0.41672465
   0.26368247  0.73129148  0.36562311
   0.37094145  0.11220887  0.25730017
   0.08735222  0.00291158  0.24737767
   0.07295050  0.21853679  0.04275251
   0.68065141  0.45007829  0.08132943
   0.33333300  0.33333300  0.04166663
   0.36395208  0.55075077  0.10643614
   0.01066169  0.78252600  0.16422184
   0.70544283  0.66667188  0.14441351
   0.69434208  0.88445756  0.18911829
   0.33333300  0.11815279  0.48787157
   0.00000000  0.00000000  0.45833338
  -0.01197867  0.21815458  0.25661432
   0.63651218  0.44895525  0.31011255
   0.28795907  0.33348475  0.27108465
   0.32223272  0.55077504  0.33559288
  -0.03048203  0.78250591  0.39368528
   0.62771724  0.66666286  0.35558335
   0.65419156  0.88339983  0.41908117
Direct configuration=    11
   0.73734033  0.26855078  0.05553120
   0.66666700  0.06418863  0.22438053
   0.07453256  0.60199031  0.13506848
   0.02600588  0.39856266  0.08339780
   0.44433953  0.93749485  0.23459353
   0.36345160  0.73126144  0.16715164
   0.66666700  0.26914537  0.27561972
   0.66666700  0.06418863  0.47438053
  -0.02870004  0.60211219  0.33344700
  -0.11272749  0.39557674  0.26472709
   0.30934032  0.93434307  0.41785588
   0.26023925  0.73121711  0.36573376
   0.36593302  0.11276241  0.25360383
   0.09128703  0.00345353  0.24823927
   0.07118350  0.21694120  0.04283247
   0.67899172  0.45004085  0.08150778
   0.33333300  0.33333300  0.04166663
   0.36929428  0.55079390  0.10693337
   0.00710209  0.78246677  0.16461217
   0.69833077  0.66666997  0.14085524
   0.70087885  0.88505187  0.19023739
   0.33333300  0.11815279  0.48787157
   0.00000000  0.00000000  0.45833338
  -0.00967083  0.21851761  0.25693906
   0.62957413  0.44867735  0.30878436
   0.29247604  0.33367140  0.27445258
   0.32428846  0.55093887  0.33433785
  -0.03675778  0.78234058  0.39284153
   0.63412192  0.66667853  0.35877792
   0.65579101  0.88366485  0.41856511
Direct configuration=    12
   0.73889381  0.26863097  0.05593731
   0.66666700  0.06418863  0.22438053
   0.07655843  0.60217467  0.13516462
   0.02337993  0.39839893  0.08319154
   0.44372670  0.93752425  0.23385084
   0.36173529  0.73108008  0.16720151
   0.66666700  0.26914537  0.27561972
   0.66666700  0.06418863  0.47438053
  -0.02741091  0.60227095  0.33322074
  -0.11248210  0.39568339  0.26535404
   0.31302190  0.93447079  0.41873867
   0.25788354  0.73105198  0.36542981
   0.36445600  0.11286177  0.25265458
   0.09216173  0.00340394  0.24827631
   0.07250069  0.21651055  0.04379635
   0.67672867  0.45025495  0.08117958
   0.33333300  0.33333300  0.04166663
   0.37130185  0.55078596  0.10708881
   0.00568438  0.78245901  0.16474651
   0.69665130  0.66666898  0.14001259
   0.70267383  0.88516654  0.19027266
   0.33333300  0.11815279  0.48787157
   0.00000000  0.00000000  0.45833338
  -0.00788109  0.21850700  0.25781578
   0.62756251  0.44866275  0.30851792
   0.29383997  0.33374265  0.27546025
   0.32573533  0.55088486  0.33428437
  -0.03827858  0.78236507  0.39288163
   0.63599260  0.66668852  0.35970063
   0.65833505  0.88344628  0.41903196
Direct configuration=    13
   0.74355423  0.26887152  0.05715563
   0.66666700  0.06418863  0.22438053
   0.08263603  0.60272773  0.13545305
   0.01550209  0.39790771  0.08257279
   0.44188822  0.93761245  0.23162276
   0.35658635  0.73053599  0.16735111
   0.66666700  0.26914537  0.27561972
   0.66666700  0.06418863  0.47438053
  -0.02354354  0.60274723  0.33254197
  -0.11174590  0.39600333  0.26723489
   0.32406663  0.93485398  0.42138706
   0.25081641  0.73055657  0.36451794
   0.36002494  0.11315984  0.24980681
   0.09478584  0.00325519  0.24838744
   0.07645227  0.21521859  0.04668800
   0.66993952  0.45089726  0.08019500
   0.33333300  0.33333300  0.04166663
   0.37732456  0.55076215  0.10755514
   0.00143126  0.78243574  0.16514953
   0.69161289  0.66666599  0.13748463
   0.70805877  0.88551053  0.19037847
   0.33333300  0.11815279  0.48787157
   0.00000000  0.00000000  0.45833338
  -0.00251190  0.21847516  0.26044594
   0.62152764  0.44861896  0.30771859
   0.29793175  0.33395641  0.27848327
   0.33007595  0.55072281  0.33412394
  -0.04284101  0.78243854  0.39300194
   0.64160463  0.66671848  0.36246875
   0.66596718  0.88279058  0.42043251
Direct configuration=    14
   0.75287508  0.26935264  0.05959227
   0.66666700  0.06418863  0.22438053
   0.09479122  0.60383387  0.13602990
  -0.00025360  0.39692527  0.08133528
   0.43821126  0.93778886  0.22716660
   0.34628847  0.72944781  0.16765031
   0.66666700  0.26914537  0.27561972
   0.66666700  0.06418863  0.47438053
  -0.01580879  0.60369979  0.33118442
  -0.11027351  0.39664321  0.27099658
   0.34615609  0.93562036  0.42668383
   0.23668215  0.72956577  0.36269422
   0.35116283  0.11375599  0.24411127
   0.10003407  0.00295770  0.24860970
   0.08435543  0.21263468  0.05247128
   0.65636122  0.45218188  0.07822584
   0.33333300  0.33333300  0.04166663
   0.38936998  0.55071453  0.10848779
  -0.00707498  0.78238919  0.16595556
   0.68153608  0.66666001  0.13242872
   0.71882866  0.88619852  0.19059009
   0.33333300  0.11815279  0.48787157
   0.00000000  0.00000000  0.45833338
   0.00822650  0.21841147  0.26570627
   0.60945790  0.44853138  0.30611993
   0.30611532  0.33438392  0.28452932
   0.33875718  0.55039872  0.33380307
  -0.05196585  0.78258548  0.39324256
   0.65282870  0.66677840  0.36800500
   0.68123144  0.88147918  0.42323360
Direct configuration=    15
   0.74748625  0.26907448  0.05818353
   0.66666700  0.06418863  0.22438053
   0.08776372  0.60319436  0.13569640
   0.00885552  0.39749326  0.08205075
   0.44033709  0.93768687  0.22974292
   0.35224217  0.73007694  0.16747733
   0.66666700  0.26914537  0.27561972
   0.66666700  0.06418863  0.47438053
  -0.02028062  0.60314907  0.33196928
  -0.11112477  0.39627326  0.26882177
   0.33338512  0.93517728  0.42362151
   0.24485384  0.73013860  0.36374860
   0.35628644  0.11341133  0.24740413
   0.09699982  0.00312970  0.24848120
   0.07978624  0.21412856  0.04912769
   0.66421148  0.45143918  0.07936431
   0.33333300  0.33333300  0.04166663
   0.38240595  0.55074206  0.10794858
  -0.00215711  0.78241610  0.16548955
   0.68736197  0.66666346  0.13535179
   0.71260207  0.88580076  0.19046774
   0.33333300  0.11815279  0.48787157
   0.00000000  0.00000000  0.45833338
   0.00201812  0.21844829  0.26266502
   0.61643599  0.44858201  0.30704419
   0.30138401  0.33413675  0.28103381
   0.33373814  0.55058609  0.33398858
  -0.04669034  0.78250053  0.39310344
   0.64633953  0.66674376  0.36480423
   0.67240644  0.88223736  0.42161416
Direct configuration=    16
   0.75237508  0.26906501  0.06025657
   0.66666700  0.06418863  0.22438053
   0.09268717  0.60331726  0.13627662
   0.00667129  0.39714096  0.08232829
   0.44165331  0.93730859  0.22920799
   0.34928496  0.72998345  0.16791582
   0.66666700  0.26914537  0.27561972
   0.66666700  0.06418863  0.47438053
  -0.01679920  0.60329266  0.33172130
  -0.11293899  0.39673108  0.26940903
   0.33815444  0.93539175  0.42467977
   0.24030195  0.72998600  0.36339483
   0.35646025  0.11307343  0.24778912
   0.09745244  0.00278598  0.24807449
   0.08734585  0.21394316  0.05313143
   0.66027424  0.45162586  0.07938891
   0.33333300  0.33333300  0.04166663
   0.38572292  0.55088350  0.10841085
  -0.00379844  0.78223465  0.16590414
   0.68338108  0.66664853  0.13335078
   0.71769269  0.88635158  0.19142123
   0.33333300  0.11815279  0.48787157
   0.00000000  0.00000000  0.45833338
   0.00390796  0.21867776  0.26385612
   0.61121461  0.44836557  0.30581454
   0.30319761  0.33417183  0.28245559
   0.33490083  0.55077432  0.33331125
  -0.05034560  0.78230572  0.39252218
   0.65019341  0.66673339  0.36672051
   0.67622364  0.88216383  0.42152488
Direct configuration=    17
   0.76187589  0.26904659  0.06428526
   0.66666700  0.06418863  0.22438053
   0.10225527  0.60355611  0.13740420
   0.00242654  0.39645629  0.08286765
   0.44421122  0.93657344  0.22816842
   0.34353801  0.72980177  0.16876798
   0.66666700  0.26914537  0.27561972
   0.66666700  0.06418863  0.47438053
  -0.01003352  0.60357171  0.33123938
  -0.11646468  0.39762078  0.27055031
   0.34742299  0.93580855  0.42673637
   0.23145592  0.72968943  0.36270730
   0.35679802  0.11241675  0.24853729
   0.09833204  0.00211800  0.24728410
   0.10203700  0.21358286  0.06091218
   0.65262271  0.45198865  0.07943671
   0.33333300  0.33333300  0.04166663
   0.39216903  0.55115835  0.10930921
  -0.00698815  0.78188203  0.16670983
   0.67564474  0.66661950  0.12946209
   0.72758564  0.88742202  0.19327423
   0.33333300  0.11815279  0.48787157
   0.00000000  0.00000000  0.45833338
   0.00758062  0.21912370  0.26617087
   0.60106750  0.44794494  0.30342487
   0.30672210  0.33423999  0.28521863
   0.33716036  0.55114011  0.33199494
  -0.05744914  0.78192712  0.39139256
   0.65768293  0.66671325  0.37044456
   0.68364187  0.88202091  0.42135140
Direct configuration=    18
   0.76387557  0.26904272  0.06513320
   0.66666700  0.06418863  0.22438053
   0.10426912  0.60360639  0.13764153
   0.00153312  0.39631218  0.08298118
   0.44474959  0.93641871  0.22794961
   0.34232842  0.72976353  0.16894733
   0.66666700  0.26914537  0.27561972
   0.66666700  0.06418863  0.47438053
  -0.00860950  0.60363045  0.33113795
  -0.11720676  0.39780803  0.27079052
   0.34937380  0.93589627  0.42716923
   0.22959405  0.72962701  0.36256260
   0.35686911  0.11227854  0.24869477
   0.09851718  0.00197741  0.24711774
   0.10512913  0.21350703  0.06254984
   0.65101225  0.45206501  0.07944677
   0.33333300  0.33333300  0.04166663
   0.39352578  0.55121620  0.10949829
  -0.00765951  0.78180781  0.16687941
   0.67401643  0.66661339  0.12864362
   0.72966787  0.88764732  0.19366424
   0.33333300  0.11815279  0.48787157
   0.00000000  0.00000000  0.45833338
   0.00835362  0.21921756  0.26665807
   0.59893178  0.44785641  0.30292190
   0.30746392  0.33425434  0.28580018
   0.33763593  0.55121710  0.33171788
  -0.05894426  0.78184743  0.39115480
   0.65925929  0.66670902  0.37122838
   0.68520322  0.88199083  0.42131488
Direct configuration=    19
   0.76417861  0.26904997  0.06609680
   0.66666700  0.06418863  0.22438053
   0.10472541  0.60377531  0.13713463
  -0.00228127  0.39620873  0.08190242
   0.44769304  0.93642695  0.22830493
   0.33987972  0.72962424  0.16847810
   0.66666700  0.26914537  0.27561972
   0.66666700  0.06418863  0.47438053
  -0.00660784  0.60372597  0.33143137
  -0.12010261  0.39760715  0.27024169
   0.35445511  0.93591675  0.42884386
   0.22892269  0.72945596  0.36291956
   0.35890342  0.11178563  0.25030786
   0.09781943  0.00197782  0.24665986
   0.10808849  0.21332311  0.06424775
   0.65162323  0.45170084  0.07974722
   0.33333300  0.33333300  0.04166663
   0.39541156  0.55126294  0.10996840
  -0.00802933  0.78178166  0.16722374
   0.67112382  0.66659820  0.12720442
   0.73167899  0.88775919  0.19366234
   0.33333300  0.11815279  0.48787157
   0.00000000  0.00000000  0.45833338
   0.00949653  0.21923071  0.26766344
   0.59607147  0.44808900  0.30272284
   0.30992043  0.33430919  0.28741914
   0.33812606  0.55124044  0.33144396
  -0.06034531  0.78185011  0.39089485
   0.66226197  0.66671847  0.37271477
   0.68558247  0.88226873  0.42128316
Direct configuration=    20
   0.76439506  0.26905515  0.06678506
   0.66666700  0.06418863  0.22438053
   0.10505131  0.60389597  0.13677257
  -0.00500568  0.39613483  0.08113193
   0.44979539  0.93643284  0.22855872
   0.33813075  0.72952476  0.16814296
   0.66666700  0.26914537  0.27561972
   0.66666700  0.06418863  0.47438053
  -0.00517817  0.60379421  0.33164095
  -0.12217095  0.39746366  0.26984969
   0.35808442  0.93593138  0.43003997
   0.22844317  0.72933378  0.36317451
   0.36035642  0.11143357  0.25146001
   0.09732107  0.00197811  0.24633282
   0.11020220  0.21319174  0.06546048
   0.65205961  0.45144074  0.07996181
   0.33333300  0.33333300  0.04166663
   0.39675847  0.55129633  0.11030417
  -0.00829347  0.78176298  0.16746967
   0.66905778  0.66658734  0.12617648
   0.73311543  0.88783910  0.19366098
   0.33333300  0.11815279  0.48787157
   0.00000000  0.00000000  0.45833338
   0.01031285  0.21924010  0.26838152
   0.59402851  0.44825513  0.30258066
   0.31167498  0.33434837  0.28857548
   0.33847614  0.55125711  0.33124832
  -0.06134600  0.78185201  0.39070918
   0.66440662  0.66672522  0.37377641
   0.68585334  0.88246721  0.42126050
