  30  30   1   0
  0.7305754E+02  0.4450884E-09  0.3193766E-08  0.1780354E-08  0.5000000E-15
  1.000000000000000E-004
  CAR 
 Tetradymite Slab                        
     10.93962290    -25.27422999  301      0.34659729      1.00000000
    -25.274  0.0000E+00  0.0000E+00
    -25.154  0.0000E+00  0.0000E+00
    -25.033  0.0000E+00  0.0000E+00
    -24.912 -0.1643E-28 -0.1983E-29
    -24.791 -0.2184E-24 -0.2637E-25
    -24.671 -0.1398E-20 -0.1688E-21
    -24.550 -0.4307E-17 -0.5201E-18
    -24.429 -0.6222E-14 -0.7516E-15
    -24.309 -0.4394E-11 -0.5311E-12
    -24.188 -0.1493E-08 -0.1807E-09
    -24.067 -0.2425E-06 -0.2945E-07
    -23.946 -0.1873E-04 -0.2291E-05
    -23.826 -0.6807E-03 -0.8446E-04
    -23.705 -0.1133E-01 -0.1452E-02
    -23.584 -0.8022E-01 -0.1114E-01
    -23.464 -0.1679E+00 -0.3140E-01
    -23.343  0.4716E+00  0.2552E-01
    -23.222  0.2731E+01  0.3551E+00
    -23.101  0.5230E+01  0.9865E+00
    -22.981  0.5542E+01  0.1655E+01
    -22.860  0.5274E+01  0.2292E+01
    -22.739  0.8073E+01  0.3267E+01
    -22.619  0.1072E+02  0.4561E+01
    -22.498  0.8591E+01  0.5598E+01
    -22.377  0.3519E+01  0.6023E+01
    -22.256  0.2150E+00  0.6049E+01
    -22.136 -0.3054E+00  0.6012E+01
    -22.015 -0.8833E-01  0.6001E+01
    -21.894 -0.9123E-02  0.6000E+01
    -21.774 -0.4109E-03  0.6000E+01
    -21.653 -0.8517E-05  0.6000E+01
    -21.532 -0.8303E-07  0.6000E+01
    -21.411 -0.3849E-09  0.6000E+01
    -21.291 -0.8535E-12  0.6000E+01
    -21.170 -0.8278E-15  0.6000E+01
    -21.049  0.0000E+00  0.6000E+01
    -20.929  0.0000E+00  0.6000E+01
    -20.808  0.0000E+00  0.6000E+01
    -20.687  0.0000E+00  0.6000E+01
    -20.566  0.0000E+00  0.6000E+01
    -20.446  0.0000E+00  0.6000E+01
    -20.325  0.0000E+00  0.6000E+01
    -20.204  0.0000E+00  0.6000E+01
    -20.084  0.0000E+00  0.6000E+01
    -19.963  0.0000E+00  0.6000E+01
    -19.842  0.0000E+00  0.6000E+01
    -19.721  0.0000E+00  0.6000E+01
    -19.601  0.0000E+00  0.6000E+01
    -19.480  0.0000E+00  0.6000E+01
    -19.359  0.0000E+00  0.6000E+01
    -19.239  0.0000E+00  0.6000E+01
    -19.118  0.0000E+00  0.6000E+01
    -18.997  0.0000E+00  0.6000E+01
    -18.876  0.0000E+00  0.6000E+01
    -18.756  0.0000E+00  0.6000E+01
    -18.635  0.0000E+00  0.6000E+01
    -18.514  0.0000E+00  0.6000E+01
    -18.394  0.0000E+00  0.6000E+01
    -18.273  0.0000E+00  0.6000E+01
    -18.152  0.0000E+00  0.6000E+01
    -18.031  0.0000E+00  0.6000E+01
    -17.911  0.0000E+00  0.6000E+01
    -17.790  0.0000E+00  0.6000E+01
    -17.669  0.0000E+00  0.6000E+01
    -17.549  0.0000E+00  0.6000E+01
    -17.428  0.0000E+00  0.6000E+01
    -17.307  0.0000E+00  0.6000E+01
    -17.186  0.0000E+00  0.6000E+01
    -17.066  0.0000E+00  0.6000E+01
    -16.945  0.0000E+00  0.6000E+01
    -16.824  0.0000E+00  0.6000E+01
    -16.704  0.0000E+00  0.6000E+01
    -16.583  0.0000E+00  0.6000E+01
    -16.462  0.0000E+00  0.6000E+01
    -16.341  0.0000E+00  0.6000E+01
    -16.221  0.0000E+00  0.6000E+01
    -16.100  0.0000E+00  0.6000E+01
    -15.979  0.0000E+00  0.6000E+01
    -15.859  0.0000E+00  0.6000E+01
    -15.738  0.0000E+00  0.6000E+01
    -15.617  0.0000E+00  0.6000E+01
    -15.496  0.0000E+00  0.6000E+01
    -15.376  0.0000E+00  0.6000E+01
    -15.255  0.0000E+00  0.6000E+01
    -15.134  0.0000E+00  0.6000E+01
    -15.014  0.0000E+00  0.6000E+01
    -14.893  0.0000E+00  0.6000E+01
    -14.772  0.0000E+00  0.6000E+01
    -14.651  0.0000E+00  0.6000E+01
    -14.531  0.0000E+00  0.6000E+01
    -14.410 -0.2061E-32  0.6000E+01
    -14.289 -0.4439E-28  0.6000E+01
    -14.169 -0.4368E-24  0.6000E+01
    -14.048 -0.2070E-20  0.6000E+01
    -13.927 -0.4727E-17  0.6000E+01
    -13.807 -0.5035E-14  0.6000E+01
    -13.686 -0.2640E-11  0.6000E+01
    -13.565 -0.6629E-09  0.6000E+01
    -13.444 -0.7927E-07  0.6000E+01
    -13.324 -0.4468E-05  0.6000E+01
    -13.203 -0.1164E-03  0.6000E+01
    -13.082 -0.1341E-02  0.6000E+01
    -12.962 -0.5908E-02  0.5999E+01
    -12.841 -0.1623E-02  0.5999E+01
    -12.720  0.5366E-01  0.6005E+01
    -12.599  0.1606E+00  0.6025E+01
    -12.479  0.2588E+00  0.6056E+01
    -12.358  0.3347E+00  0.6096E+01
    -12.237  0.3833E+00  0.6143E+01
    -12.117  0.3732E+00  0.6188E+01
    -11.996  0.3775E+00  0.6233E+01
    -11.875  0.5100E+00  0.6295E+01
    -11.754  0.6513E+00  0.6373E+01
    -11.634  0.6076E+00  0.6447E+01
    -11.513  0.5641E+00  0.6515E+01
    -11.392  0.6862E+00  0.6598E+01
    -11.272  0.7713E+00  0.6691E+01
    -11.151  0.7204E+00  0.6778E+01
    -11.030  0.7128E+00  0.6864E+01
    -10.909  0.7733E+00  0.6957E+01
    -10.789  0.7729E+00  0.7051E+01
    -10.668  0.8826E+00  0.7157E+01
    -10.547  0.1030E+01  0.7281E+01
    -10.427  0.8427E+00  0.7383E+01
    -10.306  0.6428E+00  0.7461E+01
    -10.185  0.6484E+00  0.7539E+01
    -10.064  0.4395E+00  0.7592E+01
     -9.944  0.3468E+00  0.7634E+01
     -9.823  0.6996E+00  0.7718E+01
     -9.702  0.9352E+00  0.7831E+01
     -9.582  0.8064E+00  0.7929E+01
     -9.461  0.7126E+00  0.8015E+01
     -9.340  0.8767E+00  0.8120E+01
     -9.219  0.9739E+00  0.8238E+01
     -9.099  0.8755E+00  0.8344E+01
     -8.978  0.7338E+00  0.8432E+01
     -8.857  0.6972E+00  0.8516E+01
     -8.737  0.7992E+00  0.8613E+01
     -8.616  0.7941E+00  0.8709E+01
     -8.495  0.6041E+00  0.8782E+01
     -8.374  0.4392E+00  0.8835E+01
     -8.254  0.3625E+00  0.8878E+01
     -8.133  0.3060E+00  0.8915E+01
     -8.012  0.2413E+00  0.8945E+01
     -7.892  0.2019E+00  0.8969E+01
     -7.771  0.1567E+00  0.8988E+01
     -7.650  0.8817E-01  0.8998E+01
     -7.529  0.2089E-01  0.9001E+01
     -7.409 -0.4717E-02  0.9000E+01
     -7.288 -0.2970E-02  0.9000E+01
     -7.167 -0.4518E-03  0.9000E+01
     -7.047 -0.2816E-04  0.9000E+01
     -6.926 -0.7938E-06  0.9000E+01
     -6.805 -0.1047E-07  0.9000E+01
     -6.684 -0.6562E-10  0.9000E+01
     -6.564 -0.1964E-12  0.9000E+01
     -6.443 -0.2912E-15  0.9000E+01
     -6.322  0.0000E+00  0.9000E+01
     -6.202  0.0000E+00  0.9000E+01
     -6.081  0.0000E+00  0.9000E+01
     -5.960 -0.1209E-29  0.9000E+01
     -5.839 -0.1613E-25  0.9000E+01
     -5.719 -0.1032E-21  0.9000E+01
     -5.598 -0.3169E-18  0.9000E+01
     -5.477 -0.4509E-15  0.9000E+01
     -5.357 -0.3168E-12  0.9000E+01
     -5.236 -0.1058E-09  0.9000E+01
     -5.115 -0.1678E-07  0.9000E+01
     -4.994 -0.1259E-05  0.9000E+01
     -4.874 -0.4399E-04  0.9000E+01
     -4.753 -0.6936E-03  0.9000E+01
     -4.632 -0.4450E-02  0.8999E+01
     -4.512 -0.6007E-02  0.8999E+01
     -4.391  0.3857E-01  0.9003E+01
     -4.270  0.1364E+00  0.9020E+01
     -4.149  0.1590E+00  0.9039E+01
     -4.029  0.1295E+00  0.9055E+01
     -3.908  0.2640E+00  0.9086E+01
     -3.787  0.6374E+00  0.9163E+01
     -3.667  0.1083E+01  0.9294E+01
     -3.546  0.1259E+01  0.9446E+01
     -3.425  0.1114E+01  0.9581E+01
     -3.304  0.9619E+00  0.9697E+01
     -3.184  0.8826E+00  0.9803E+01
     -3.063  0.9054E+00  0.9913E+01
     -2.942  0.1074E+01  0.1004E+02
     -2.822  0.1205E+01  0.1019E+02
     -2.701  0.1359E+01  0.1035E+02
     -2.580  0.1525E+01  0.1054E+02
     -2.460  0.1529E+01  0.1072E+02
     -2.339  0.1547E+01  0.1091E+02
     -2.218  0.1669E+01  0.1111E+02
     -2.097  0.1617E+01  0.1130E+02
     -1.977  0.1438E+01  0.1148E+02
     -1.856  0.1381E+01  0.1164E+02
     -1.735  0.1453E+01  0.1182E+02
     -1.615  0.1439E+01  0.1199E+02
     -1.494  0.1276E+01  0.1215E+02
     -1.373  0.1094E+01  0.1228E+02
     -1.252  0.1031E+01  0.1240E+02
     -1.132  0.1172E+01  0.1254E+02
     -1.011  0.1338E+01  0.1271E+02
     -0.890  0.1305E+01  0.1286E+02
     -0.770  0.1101E+01  0.1300E+02
     -0.649  0.1042E+01  0.1312E+02
     -0.528  0.1214E+01  0.1327E+02
     -0.407  0.1381E+01  0.1344E+02
     -0.287  0.1549E+01  0.1362E+02
     -0.166  0.1653E+01  0.1382E+02
     -0.045  0.1519E+01  0.1401E+02
      0.075  0.1265E+01  0.1416E+02
      0.196  0.1036E+01  0.1428E+02
      0.317  0.8072E+00  0.1438E+02
      0.438  0.5421E+00  0.1445E+02
      0.558  0.4085E+00  0.1450E+02
      0.679  0.5694E+00  0.1456E+02
      0.800  0.7911E+00  0.1466E+02
      0.920  0.7929E+00  0.1476E+02
      1.041  0.6350E+00  0.1483E+02
      1.162  0.5365E+00  0.1490E+02
      1.283  0.5801E+00  0.1497E+02
      1.403  0.5729E+00  0.1504E+02
      1.524  0.5459E+00  0.1510E+02
      1.645  0.7386E+00  0.1519E+02
      1.765  0.9932E+00  0.1531E+02
      1.886  0.1087E+01  0.1544E+02
      2.007  0.1243E+01  0.1559E+02
      2.128  0.1518E+01  0.1578E+02
      2.248  0.1641E+01  0.1597E+02
      2.369  0.1628E+01  0.1617E+02
      2.490  0.1468E+01  0.1635E+02
      2.610  0.1178E+01  0.1649E+02
      2.731  0.1056E+01  0.1662E+02
      2.852  0.1217E+01  0.1676E+02
      2.973  0.1349E+01  0.1693E+02
      3.093  0.1334E+01  0.1709E+02
      3.214  0.1300E+01  0.1724E+02
      3.335  0.1252E+01  0.1740E+02
      3.455  0.1233E+01  0.1754E+02
      3.576  0.1197E+01  0.1769E+02
      3.697  0.9705E+00  0.1781E+02
      3.818  0.7291E+00  0.1789E+02
      3.938  0.5745E+00  0.1796E+02
      4.059  0.3937E+00  0.1801E+02
      4.180  0.2409E+00  0.1804E+02
      4.300  0.2403E+00  0.1807E+02
      4.421  0.3596E+00  0.1811E+02
      4.542  0.5161E+00  0.1818E+02
      4.663  0.6106E+00  0.1825E+02
      4.783  0.6506E+00  0.1833E+02
      4.904  0.8355E+00  0.1843E+02
      5.025  0.1126E+01  0.1856E+02
      5.145  0.1306E+01  0.1872E+02
      5.266  0.1396E+01  0.1889E+02
      5.387  0.1418E+01  0.1906E+02
      5.508  0.1402E+01  0.1923E+02
      5.628  0.1467E+01  0.1941E+02
      5.749  0.1542E+01  0.1959E+02
      5.870  0.1559E+01  0.1978E+02
      5.990  0.1600E+01  0.1998E+02
      6.111  0.1758E+01  0.2019E+02
      6.232  0.1880E+01  0.2041E+02
      6.353  0.1845E+01  0.2064E+02
      6.473  0.1846E+01  0.2086E+02
      6.594  0.1895E+01  0.2109E+02
      6.715  0.1869E+01  0.2131E+02
      6.835  0.1908E+01  0.2154E+02
      6.956  0.2081E+01  0.2180E+02
      7.077  0.2094E+01  0.2205E+02
      7.198  0.1967E+01  0.2229E+02
      7.318  0.2019E+01  0.2253E+02
      7.439  0.2114E+01  0.2279E+02
      7.560  0.2063E+01  0.2303E+02
      7.680  0.2038E+01  0.2328E+02
      7.801  0.2138E+01  0.2354E+02
      7.922  0.2180E+01  0.2380E+02
      8.043  0.2115E+01  0.2406E+02
      8.163  0.2115E+01  0.2431E+02
      8.284  0.2198E+01  0.2458E+02
      8.405  0.2290E+01  0.2485E+02
      8.525  0.2343E+01  0.2514E+02
      8.646  0.2070E+01  0.2539E+02
      8.767  0.1282E+01  0.2554E+02
      8.888  0.4618E+00  0.2560E+02
      9.008  0.6388E-01  0.2560E+02
      9.129 -0.2129E-01  0.2560E+02
      9.250 -0.1394E-01  0.2560E+02
      9.370 -0.3210E-02  0.2560E+02
      9.491 -0.3460E-03  0.2560E+02
      9.612 -0.1788E-04  0.2560E+02
      9.732 -0.4448E-06  0.2560E+02
      9.853 -0.5332E-08  0.2560E+02
      9.974 -0.3085E-10  0.2560E+02
     10.095 -0.8624E-13  0.2560E+02
     10.215 -0.1175E-15  0.2560E+02
     10.336  0.0000E+00  0.2560E+02
     10.457  0.0000E+00  0.2560E+02
     10.577  0.0000E+00  0.2560E+02
     10.698  0.0000E+00  0.2560E+02
     10.819  0.0000E+00  0.2560E+02
     10.940  0.0000E+00  0.2560E+02
     10.93962290    -25.27422999  301      0.34659729      1.00000000
    -25.274  0.0000E+00  0.0000E+00  0.0000E+00  0.0000E+00  0.0000E+00  0.0000E+00  0.0000E+00  0.0000E+00  0.0000E+00
    -25.154  0.0000E+00  0.0000E+00  0.0000E+00  0.0000E+00  0.0000E+00  0.0000E+00  0.0000E+00  0.0000E+00  0.0000E+00
    -25.033  0.0000E+00  0.0000E+00  0.0000E+00  0.0000E+00  0.0000E+00  0.0000E+00  0.0000E+00  0.0000E+00  0.0000E+00
    -24.912 -0.5081E-38 -0.3142E-37 -0.4683E-38 -0.8309E-38 -0.9499E-35 -0.3344E-35 -0.1001E-35 -0.2879E-35 -0.3928E-35
    -24.791 -0.5984E-32 -0.6911E-32 -0.4770E-32 -0.1205E-31 -0.1188E-26 -0.4208E-27 -0.7131E-28 -0.4616E-27 -0.6743E-27
    -24.671 -0.6648E-28 -0.7652E-28 -0.5267E-28 -0.1323E-27 -0.1312E-22 -0.4683E-23 -0.8390E-24 -0.5247E-23 -0.7667E-23
    -24.550 -0.3552E-24 -0.4123E-24 -0.2802E-24 -0.6991E-24 -0.6951E-19 -0.2508E-19 -0.4832E-20 -0.2867E-19 -0.4187E-19
    -24.429 -0.9112E-21 -0.1076E-20 -0.7172E-21 -0.1773E-20 -0.1766E-15 -0.6464E-16 -0.1367E-16 -0.7524E-16 -0.1097E-15
    -24.309 -0.1087E-17 -0.1319E-17 -0.8573E-18 -0.2093E-17 -0.2083E-12 -0.7798E-13 -0.1870E-13 -0.9205E-13 -0.1338E-12
    -24.188 -0.6352E-15 -0.7942E-15 -0.5028E-15 -0.1208E-14 -0.1200E-09 -0.4619E-10 -0.1256E-10 -0.5513E-10 -0.7971E-10
    -24.067 -0.1770E-12 -0.2302E-12 -0.1415E-12 -0.3325E-12 -0.3287E-07 -0.1318E-07 -0.4196E-08 -0.1579E-07 -0.2263E-07
    -23.946 -0.2342E-10 -0.3191E-10 -0.1905E-10 -0.4334E-10 -0.4248E-05 -0.1804E-05 -0.6834E-06 -0.2149E-05 -0.3039E-05
    -23.826 -0.1462E-08 -0.2100E-08 -0.1221E-08 -0.2648E-08 -0.2560E-03 -0.1177E-03 -0.5367E-04 -0.1380E-03 -0.1911E-03
    -23.705 -0.4244E-07 -0.6443E-07 -0.3675E-07 -0.7425E-07 -0.7023E-02 -0.3604E-02 -0.1989E-02 -0.4104E-02 -0.5501E-02
    -23.584 -0.5506E-06 -0.8796E-06 -0.5004E-06 -0.9049E-06 -0.8261E-01 -0.4953E-01 -0.3328E-01 -0.5397E-01 -0.6870E-01
    -23.464 -0.2772E-05 -0.4578E-05 -0.2694E-05 -0.3962E-05 -0.3357E+00 -0.2633E+00 -0.2224E+00 -0.2683E+00 -0.3084E+00
    -23.343 -0.9431E-06 -0.1232E-05 -0.1526E-05  0.1721E-05  0.2732E+00 -0.1028E+00 -0.2740E+00 -0.3834E-01  0.1137E+00
    -23.222  0.2999E-04  0.5111E-04  0.2863E-04  0.4764E-04  0.4206E+01  0.2898E+01  0.2194E+01  0.3015E+01  0.3681E+01
    -23.101  0.7853E-04  0.1239E-03  0.7874E-04  0.9690E-04  0.7675E+01  0.7326E+01  0.7017E+01  0.7228E+01  0.7538E+01
    -22.981  0.7105E-04  0.9564E-04  0.7067E-04  0.6602E-04  0.4579E+01  0.5869E+01  0.6550E+01  0.5736E+01  0.5098E+01
    -22.860  0.2762E-04  0.1847E-04  0.2087E-04  0.1184E-04  0.4634E+00  0.1178E+01  0.1662E+01  0.1219E+01  0.7667E+00
    -22.739  0.1235E-04 -0.4884E-05  0.1565E-05 -0.1190E-05 -0.3380E+00 -0.3573E+00 -0.3392E+00 -0.3252E+00 -0.3388E+00
    -22.619  0.7192E-05 -0.1751E-05  0.1018E-05  0.4314E-06 -0.9720E-01 -0.1507E+00 -0.1851E+00 -0.1521E+00 -0.1196E+00
    -22.498  0.7092E-06 -0.2170E-06  0.6898E-07  0.7001E-07 -0.9489E-02 -0.1757E-01 -0.2401E-01 -0.1915E-01 -0.1324E-01
    -22.377 -0.7025E-06 -0.6034E-07 -0.2388E-06 -0.1528E-06 -0.4304E-03 -0.8988E-03 -0.1371E-02 -0.1076E-02 -0.6785E-03
    -22.256 -0.2036E-06 -0.1324E-07 -0.6773E-07 -0.4456E-07 -0.1445E-04 -0.3118E-04 -0.6003E-04 -0.4350E-04 -0.2735E-04
    -22.136 -0.1986E-07 -0.1341E-08 -0.6680E-08 -0.4439E-08 -0.6526E-06 -0.1315E-05 -0.3246E-05 -0.2115E-05 -0.1443E-05
    -22.015 -0.8344E-09 -0.9026E-10 -0.2927E-09 -0.2033E-09 -0.2329E-07 -0.4501E-07 -0.1221E-06 -0.7663E-07 -0.5416E-07
    -21.894 -0.1682E-10 -0.5469E-11 -0.6918E-11 -0.5745E-11 -0.4419E-09 -0.8216E-09 -0.2280E-08 -0.1415E-08 -0.1025E-08
    -21.774 -0.1989E-12 -0.2221E-12 -0.1212E-12 -0.1362E-12 -0.4809E-11 -0.7993E-11 -0.2082E-10 -0.1283E-10 -0.1034E-10
    -21.653 -0.1926E-14 -0.4614E-14 -0.1730E-14 -0.2336E-14 -0.4072E-13 -0.5259E-13 -0.1059E-12 -0.6391E-13 -0.7472E-13
    -21.532 -0.1497E-16 -0.4590E-16 -0.1522E-16 -0.2181E-16 -0.2856E-15 -0.2953E-15 -0.4092E-15 -0.2332E-15 -0.4800E-15
    -21.411 -0.6704E-19 -0.2172E-18 -0.6829E-19 -0.9963E-19 -0.1201E-17 -0.1112E-17 -0.1195E-17 -0.6264E-18 -0.2023E-17
    -21.291 -0.1549E-21 -0.4910E-21 -0.1506E-21 -0.2196E-21 -0.2677E-20 -0.2445E-20 -0.2722E-20 -0.1386E-20 -0.4735E-20
    -21.170 -0.1622E-24 -0.5570E-24 -0.1489E-24 -0.2371E-24 -0.2734E-23 -0.2249E-23 -0.2672E-23 -0.1249E-23 -0.4970E-23
    -21.049  0.0000E+00  0.0000E+00  0.0000E+00  0.0000E+00  0.0000E+00  0.0000E+00  0.0000E+00  0.0000E+00  0.0000E+00
    -20.929  0.0000E+00  0.0000E+00  0.0000E+00  0.0000E+00  0.0000E+00  0.0000E+00  0.0000E+00  0.0000E+00  0.0000E+00
    -20.808  0.0000E+00  0.0000E+00  0.0000E+00  0.0000E+00  0.0000E+00  0.0000E+00  0.0000E+00  0.0000E+00  0.0000E+00
    -20.687  0.0000E+00  0.0000E+00  0.0000E+00  0.0000E+00  0.0000E+00  0.0000E+00  0.0000E+00  0.0000E+00  0.0000E+00
    -20.566  0.0000E+00  0.0000E+00  0.0000E+00  0.0000E+00  0.0000E+00  0.0000E+00  0.0000E+00  0.0000E+00  0.0000E+00
    -20.446  0.0000E+00  0.0000E+00  0.0000E+00  0.0000E+00  0.0000E+00  0.0000E+00  0.0000E+00  0.0000E+00  0.0000E+00
    -20.325  0.0000E+00  0.0000E+00  0.0000E+00  0.0000E+00  0.0000E+00  0.0000E+00  0.0000E+00  0.0000E+00  0.0000E+00
    -20.204  0.0000E+00  0.0000E+00  0.0000E+00  0.0000E+00  0.0000E+00  0.0000E+00  0.0000E+00  0.0000E+00  0.0000E+00
    -20.084  0.0000E+00  0.0000E+00  0.0000E+00  0.0000E+00  0.0000E+00  0.0000E+00  0.0000E+00  0.0000E+00  0.0000E+00
    -19.963  0.0000E+00  0.0000E+00  0.0000E+00  0.0000E+00  0.0000E+00  0.0000E+00  0.0000E+00  0.0000E+00  0.0000E+00
    -19.842  0.0000E+00  0.0000E+00  0.0000E+00  0.0000E+00  0.0000E+00  0.0000E+00  0.0000E+00  0.0000E+00  0.0000E+00
    -19.721  0.0000E+00  0.0000E+00  0.0000E+00  0.0000E+00  0.0000E+00  0.0000E+00  0.0000E+00  0.0000E+00  0.0000E+00
    -19.601  0.0000E+00  0.0000E+00  0.0000E+00  0.0000E+00  0.0000E+00  0.0000E+00  0.0000E+00  0.0000E+00  0.0000E+00
    -19.480  0.0000E+00  0.0000E+00  0.0000E+00  0.0000E+00  0.0000E+00  0.0000E+00  0.0000E+00  0.0000E+00  0.0000E+00
    -19.359  0.0000E+00  0.0000E+00  0.0000E+00  0.0000E+00  0.0000E+00  0.0000E+00  0.0000E+00  0.0000E+00  0.0000E+00
    -19.239  0.0000E+00  0.0000E+00  0.0000E+00  0.0000E+00  0.0000E+00  0.0000E+00  0.0000E+00  0.0000E+00  0.0000E+00
    -19.118  0.0000E+00  0.0000E+00  0.0000E+00  0.0000E+00  0.0000E+00  0.0000E+00  0.0000E+00  0.0000E+00  0.0000E+00
    -18.997  0.0000E+00  0.0000E+00  0.0000E+00  0.0000E+00  0.0000E+00  0.0000E+00  0.0000E+00  0.0000E+00  0.0000E+00
    -18.876  0.0000E+00  0.0000E+00  0.0000E+00  0.0000E+00  0.0000E+00  0.0000E+00  0.0000E+00  0.0000E+00  0.0000E+00
    -18.756  0.0000E+00  0.0000E+00  0.0000E+00  0.0000E+00  0.0000E+00  0.0000E+00  0.0000E+00  0.0000E+00  0.0000E+00
    -18.635  0.0000E+00  0.0000E+00  0.0000E+00  0.0000E+00  0.0000E+00  0.0000E+00  0.0000E+00  0.0000E+00  0.0000E+00
    -18.514  0.0000E+00  0.0000E+00  0.0000E+00  0.0000E+00  0.0000E+00  0.0000E+00  0.0000E+00  0.0000E+00  0.0000E+00
    -18.394  0.0000E+00  0.0000E+00  0.0000E+00  0.0000E+00  0.0000E+00  0.0000E+00  0.0000E+00  0.0000E+00  0.0000E+00
    -18.273  0.0000E+00  0.0000E+00  0.0000E+00  0.0000E+00  0.0000E+00  0.0000E+00  0.0000E+00  0.0000E+00  0.0000E+00
    -18.152  0.0000E+00  0.0000E+00  0.0000E+00  0.0000E+00  0.0000E+00  0.0000E+00  0.0000E+00  0.0000E+00  0.0000E+00
    -18.031  0.0000E+00  0.0000E+00  0.0000E+00  0.0000E+00  0.0000E+00  0.0000E+00  0.0000E+00  0.0000E+00  0.0000E+00
    -17.911  0.0000E+00  0.0000E+00  0.0000E+00  0.0000E+00  0.0000E+00  0.0000E+00  0.0000E+00  0.0000E+00  0.0000E+00
    -17.790  0.0000E+00  0.0000E+00  0.0000E+00  0.0000E+00  0.0000E+00  0.0000E+00  0.0000E+00  0.0000E+00  0.0000E+00
    -17.669  0.0000E+00  0.0000E+00  0.0000E+00  0.0000E+00  0.0000E+00  0.0000E+00  0.0000E+00  0.0000E+00  0.0000E+00
    -17.549  0.0000E+00  0.0000E+00  0.0000E+00  0.0000E+00  0.0000E+00  0.0000E+00  0.0000E+00  0.0000E+00  0.0000E+00
    -17.428  0.0000E+00  0.0000E+00  0.0000E+00  0.0000E+00  0.0000E+00  0.0000E+00  0.0000E+00  0.0000E+00  0.0000E+00
    -17.307  0.0000E+00  0.0000E+00  0.0000E+00  0.0000E+00  0.0000E+00  0.0000E+00  0.0000E+00  0.0000E+00  0.0000E+00
    -17.186  0.0000E+00  0.0000E+00  0.0000E+00  0.0000E+00  0.0000E+00  0.0000E+00  0.0000E+00  0.0000E+00  0.0000E+00
    -17.066  0.0000E+00  0.0000E+00  0.0000E+00  0.0000E+00  0.0000E+00  0.0000E+00  0.0000E+00  0.0000E+00  0.0000E+00
    -16.945  0.0000E+00  0.0000E+00  0.0000E+00  0.0000E+00  0.0000E+00  0.0000E+00  0.0000E+00  0.0000E+00  0.0000E+00
    -16.824  0.0000E+00  0.0000E+00  0.0000E+00  0.0000E+00  0.0000E+00  0.0000E+00  0.0000E+00  0.0000E+00  0.0000E+00
    -16.704  0.0000E+00  0.0000E+00  0.0000E+00  0.0000E+00  0.0000E+00  0.0000E+00  0.0000E+00  0.0000E+00  0.0000E+00
    -16.583  0.0000E+00  0.0000E+00  0.0000E+00  0.0000E+00  0.0000E+00  0.0000E+00  0.0000E+00  0.0000E+00  0.0000E+00
    -16.462  0.0000E+00  0.0000E+00  0.0000E+00  0.0000E+00  0.0000E+00  0.0000E+00  0.0000E+00  0.0000E+00  0.0000E+00
    -16.341  0.0000E+00  0.0000E+00  0.0000E+00  0.0000E+00  0.0000E+00  0.0000E+00  0.0000E+00  0.0000E+00  0.0000E+00
    -16.221  0.0000E+00  0.0000E+00  0.0000E+00  0.0000E+00  0.0000E+00  0.0000E+00  0.0000E+00  0.0000E+00  0.0000E+00
    -16.100  0.0000E+00  0.0000E+00  0.0000E+00  0.0000E+00  0.0000E+00  0.0000E+00  0.0000E+00  0.0000E+00  0.0000E+00
    -15.979  0.0000E+00  0.0000E+00  0.0000E+00  0.0000E+00  0.0000E+00  0.0000E+00  0.0000E+00  0.0000E+00  0.0000E+00
    -15.859  0.0000E+00  0.0000E+00  0.0000E+00  0.0000E+00  0.0000E+00  0.0000E+00  0.0000E+00  0.0000E+00  0.0000E+00
    -15.738  0.0000E+00  0.0000E+00  0.0000E+00  0.0000E+00  0.0000E+00  0.0000E+00  0.0000E+00  0.0000E+00  0.0000E+00
    -15.617  0.0000E+00  0.0000E+00  0.0000E+00  0.0000E+00  0.0000E+00  0.0000E+00  0.0000E+00  0.0000E+00  0.0000E+00
    -15.496  0.0000E+00  0.0000E+00  0.0000E+00  0.0000E+00  0.0000E+00  0.0000E+00  0.0000E+00  0.0000E+00  0.0000E+00
    -15.376  0.0000E+00  0.0000E+00  0.0000E+00  0.0000E+00  0.0000E+00  0.0000E+00  0.0000E+00  0.0000E+00  0.0000E+00
    -15.255  0.0000E+00  0.0000E+00  0.0000E+00  0.0000E+00  0.0000E+00  0.0000E+00  0.0000E+00  0.0000E+00  0.0000E+00
    -15.134  0.0000E+00  0.0000E+00  0.0000E+00  0.0000E+00  0.0000E+00  0.0000E+00  0.0000E+00  0.0000E+00  0.0000E+00
    -15.014  0.0000E+00  0.0000E+00  0.0000E+00  0.0000E+00  0.0000E+00  0.0000E+00  0.0000E+00  0.0000E+00  0.0000E+00
    -14.893  0.0000E+00  0.0000E+00  0.0000E+00  0.0000E+00  0.0000E+00  0.0000E+00  0.0000E+00  0.0000E+00  0.0000E+00
    -14.772  0.0000E+00  0.0000E+00  0.0000E+00  0.0000E+00  0.0000E+00  0.0000E+00  0.0000E+00  0.0000E+00  0.0000E+00
    -14.651  0.0000E+00  0.0000E+00  0.0000E+00  0.0000E+00  0.0000E+00  0.0000E+00  0.0000E+00  0.0000E+00  0.0000E+00
    -14.531  0.0000E+00  0.0000E+00  0.0000E+00  0.0000E+00  0.0000E+00  0.0000E+00  0.0000E+00  0.0000E+00  0.0000E+00
    -14.410 -0.8034E-32 -0.9897E-35 -0.1022E-33 -0.3409E-34 -0.1319E-36 -0.3960E-36 -0.4467E-36 -0.2551E-35 -0.4722E-36
    -14.289 -0.1731E-27 -0.2115E-30 -0.2204E-29 -0.7418E-30 -0.4375E-32 -0.9169E-32 -0.1029E-31 -0.5471E-31 -0.1026E-31
    -14.169 -0.1703E-23 -0.2077E-26 -0.2169E-25 -0.7319E-26 -0.4706E-28 -0.9189E-28 -0.1030E-27 -0.5377E-27 -0.1011E-27
    -14.048 -0.8074E-20 -0.9817E-23 -0.1028E-21 -0.3481E-22 -0.2466E-24 -0.4453E-24 -0.4985E-24 -0.2545E-23 -0.4806E-24
    -13.927 -0.1843E-16 -0.2234E-19 -0.2348E-18 -0.7979E-19 -0.6289E-21 -0.1044E-20 -0.1167E-20 -0.5801E-20 -0.1101E-20
    -13.807 -0.1964E-13 -0.2370E-16 -0.2502E-15 -0.8541E-16 -0.7569E-18 -0.1148E-17 -0.1281E-17 -0.6166E-17 -0.1177E-17
    -13.686 -0.1030E-10 -0.1237E-13 -0.1312E-12 -0.4504E-13 -0.4503E-15 -0.6243E-15 -0.6947E-15 -0.3224E-14 -0.6200E-15
    -13.565 -0.2585E-08 -0.3086E-11 -0.3294E-10 -0.1138E-10 -0.1292E-12 -0.1635E-12 -0.1814E-12 -0.8068E-12 -0.1565E-12
    -13.444 -0.3087E-06 -0.3660E-09 -0.3936E-08 -0.1371E-08 -0.1776E-10 -0.2049E-10 -0.2268E-10 -0.9601E-10 -0.1882E-10
    -13.324 -0.1735E-04 -0.2040E-07 -0.2214E-06 -0.7784E-07 -0.1160E-08 -0.1220E-08 -0.1345E-08 -0.5372E-08 -0.1067E-08
    -13.203 -0.4487E-03 -0.5211E-06 -0.5726E-05 -0.2039E-05 -0.3561E-07 -0.3391E-07 -0.3723E-07 -0.1381E-06 -0.2792E-07
    -13.082 -0.5043E-02 -0.5749E-05 -0.6441E-04 -0.2341E-04 -0.5030E-06 -0.4251E-06 -0.4631E-06 -0.1538E-05 -0.3204E-06
    -12.962 -0.2025E-01 -0.2203E-04 -0.2591E-03 -0.9897E-04 -0.3057E-05 -0.2158E-05 -0.2310E-05 -0.6046E-05 -0.1360E-05
    -12.841  0.1061E-01  0.1838E-04  0.1332E-03  0.1931E-04 -0.5264E-05 -0.1904E-05 -0.1768E-05  0.3969E-05  0.1947E-06
    -12.720  0.2332E+00  0.2698E-03  0.2980E-02  0.1064E-02  0.1913E-04  0.1749E-04  0.1967E-04  0.7134E-04  0.1433E-04
    -12.599  0.5049E+00  0.5330E-03  0.6479E-02  0.2566E-02  0.9620E-04  0.6161E-04  0.6649E-04  0.1483E-03  0.3515E-04
    -12.479  0.4964E+00  0.4356E-03  0.6406E-02  0.2968E-02  0.1884E-03  0.1034E-03  0.1060E-03  0.1369E-03  0.4282E-04
    -12.358  0.3859E+00  0.1855E-03  0.4924E-02  0.2843E-02  0.2672E-03  0.1415E-03  0.1330E-03  0.9390E-04  0.4527E-04
    -12.237  0.3792E+00  0.3012E-04  0.4547E-02  0.2849E-02  0.2961E-03  0.1657E-03  0.1404E-03  0.7931E-04  0.4871E-04
    -12.117  0.4117E+00 -0.7606E-04  0.4704E-02  0.3140E-02  0.3478E-03  0.2109E-03  0.1585E-03  0.7998E-04  0.6106E-04
    -11.996  0.4076E+00  0.3175E-03  0.4607E-02  0.3389E-02  0.4288E-03  0.3153E-03  0.1979E-03  0.1398E-03  0.7564E-04
    -11.875  0.3449E+00  0.1723E-02  0.3462E-02  0.2700E-02  0.4383E-03  0.5003E-03  0.2132E-03  0.3210E-03  0.8437E-04
    -11.754  0.4230E+00  0.2647E-02  0.3926E-02  0.3206E-02  0.5897E-03  0.7407E-03  0.2732E-03  0.4698E-03  0.1276E-03
    -11.634  0.4678E+00  0.2038E-02  0.4286E-02  0.3248E-02  0.5800E-03  0.7097E-03  0.2315E-03  0.3696E-03  0.1333E-03
    -11.513  0.4393E+00  0.1929E-02  0.3408E-02  0.1928E-02  0.3872E-03  0.6369E-03  0.1118E-03  0.3096E-03  0.1159E-03
    -11.392  0.4200E+00  0.3927E-02  0.2450E-02  0.1651E-02  0.4726E-03  0.8452E-03  0.1817E-03  0.6398E-03  0.1556E-03
    -11.272  0.3646E+00  0.6227E-02  0.1394E-02  0.2496E-02  0.7640E-03  0.1072E-02  0.3860E-03  0.1063E-02  0.2136E-03
    -11.151  0.3884E+00  0.5526E-02  0.1361E-02  0.3282E-02  0.8604E-03  0.9751E-03  0.4529E-03  0.9793E-03  0.2220E-03
    -11.030  0.4482E+00  0.2771E-02  0.1507E-02  0.2567E-02  0.5731E-03  0.5752E-03  0.3059E-03  0.5231E-03  0.1524E-03
    -10.909  0.3221E+00  0.9811E-04  0.6871E-03  0.5755E-03  0.6870E-04  0.4774E-04  0.7699E-04  0.9820E-04  0.3415E-04
    -10.789  0.9006E-01  0.1132E-02  0.1450E-02  0.3635E-02  0.8369E-03  0.4686E-03  0.2516E-03  0.2303E-03  0.1155E-03
    -10.668  0.3922E-01  0.1262E-01  0.6522E-02  0.1652E-01  0.4274E-02  0.3422E-02  0.1174E-02  0.1500E-02  0.6579E-03
    -10.547  0.1126E+00  0.2448E-01  0.9594E-02  0.2296E-01  0.6337E-02  0.5961E-02  0.1672E-02  0.2511E-02  0.1041E-02
    -10.427  0.1102E+00  0.1833E-01  0.5585E-02  0.1249E-01  0.3704E-02  0.4090E-02  0.9498E-03  0.1687E-02  0.6744E-03
    -10.306  0.6148E-01  0.1026E-01  0.1618E-02  0.2881E-02  0.1119E-02  0.1885E-02  0.2798E-03  0.8212E-03  0.3349E-03
    -10.185  0.4124E-01  0.1253E-01  0.9742E-03  0.1083E-02  0.8195E-03  0.2027E-02  0.1663E-03  0.8947E-03  0.3678E-03
    -10.064  0.1326E-01  0.1015E-01  0.6338E-03  0.5888E-03  0.6122E-03  0.1606E-02  0.1021E-03  0.6860E-03  0.2758E-03
     -9.944  0.7699E-01  0.3786E-02  0.3016E-03  0.1205E-03  0.2102E-03  0.6157E-03  0.2964E-04  0.2401E-03  0.7889E-04
     -9.823  0.3527E+00  0.4223E-02  0.9742E-03  0.7144E-03  0.3601E-03  0.8316E-03  0.7663E-04  0.2706E-03  0.5039E-04
     -9.702  0.5749E+00  0.5959E-02  0.1934E-02  0.2067E-02  0.7277E-03  0.1280E-02  0.1810E-03  0.4153E-03  0.1002E-03
     -9.582  0.6392E+00  0.3715E-02  0.2671E-02  0.3517E-02  0.8976E-03  0.1012E-02  0.2742E-03  0.3359E-03  0.1184E-03
     -9.461  0.8270E+00  0.1518E-02  0.3696E-02  0.4456E-02  0.9067E-03  0.6143E-03  0.3317E-03  0.2341E-03  0.1233E-03
     -9.340  0.9123E+00  0.1237E-02  0.4000E-02  0.3900E-02  0.6889E-03  0.3547E-03  0.2790E-03  0.1700E-03  0.1032E-03
     -9.219  0.6280E+00  0.1896E-02  0.2797E-02  0.2273E-02  0.3669E-03  0.2111E-03  0.1527E-03  0.1161E-03  0.6294E-04
     -9.099  0.3046E+00  0.2242E-02  0.1386E-02  0.9508E-03  0.1492E-03  0.1531E-03  0.5917E-04  0.7671E-04  0.4033E-04
     -8.978  0.9965E-01  0.1423E-02  0.4375E-03  0.2619E-03  0.4738E-04  0.9824E-04  0.1655E-04  0.4361E-04  0.4120E-04
     -8.857  0.2025E-01  0.5168E-03  0.2657E-03  0.3818E-03  0.1486E-03  0.1109E-03  0.1034E-04  0.2701E-04  0.5676E-04
     -8.737  0.5246E-01  0.3962E-03  0.9309E-03  0.1351E-02  0.5035E-03  0.2836E-03  0.2832E-04  0.3859E-04  0.1120E-03
     -8.616  0.9936E-01  0.6598E-03  0.1575E-02  0.2087E-02  0.7093E-03  0.4252E-03  0.4930E-04  0.6011E-04  0.1591E-03
     -8.495  0.1206E+00  0.6359E-03  0.1771E-02  0.1987E-02  0.5596E-03  0.3473E-03  0.6110E-04  0.5770E-04  0.1253E-03
     -8.374  0.1383E+00  0.3640E-03  0.2015E-02  0.1684E-02  0.3555E-03  0.2105E-03  0.6639E-04  0.3958E-04  0.8594E-04
     -8.254  0.1469E+00  0.3074E-03  0.2217E-02  0.1424E-02  0.2211E-03  0.1213E-03  0.6603E-04  0.3276E-04  0.7022E-04
     -8.133  0.1209E+00  0.4662E-03  0.1869E-02  0.1001E-02  0.1127E-03  0.5498E-04  0.5222E-04  0.3311E-04  0.3912E-04
     -8.012  0.6243E-01  0.3643E-03  0.9987E-03  0.4560E-03  0.3487E-04  0.1626E-04  0.2540E-04  0.2071E-04  0.1231E-04
     -7.892  0.1357E-01  0.1056E-03  0.2579E-03  0.1036E-03  0.4933E-05  0.4803E-05  0.5231E-05  0.6049E-05  0.3053E-05
     -7.771 -0.2603E-03  0.2016E-04  0.2475E-04  0.1189E-04  0.7347E-06  0.1961E-05  0.1948E-06  0.1903E-05  0.7565E-06
     -7.650 -0.1154E-03  0.1975E-04  0.5170E-05  0.3739E-05  0.2821E-06  0.3272E-06  0.2488E-06  0.1523E-05 -0.4655E-07
     -7.529  0.7312E-05  0.7178E-05  0.5870E-07 -0.1436E-06 -0.1111E-06 -0.1200E-06  0.7312E-07  0.4622E-06 -0.1234E-06
     -7.409 -0.1115E-03 -0.1215E-05 -0.2379E-05 -0.1290E-05 -0.1288E-06 -0.8990E-07 -0.6056E-07 -0.9682E-07 -0.4408E-07
     -7.288 -0.4857E-04 -0.9684E-06 -0.9737E-06 -0.4689E-06 -0.3584E-07 -0.2442E-07 -0.2803E-07 -0.6601E-07 -0.8613E-08
     -7.167 -0.7171E-05 -0.1557E-06 -0.1414E-06 -0.6279E-07 -0.3975E-08 -0.2970E-08 -0.4018E-08 -0.1021E-07 -0.9156E-09
     -7.047 -0.4494E-06 -0.1003E-07 -0.8811E-08 -0.3666E-08 -0.1942E-09 -0.1655E-09 -0.2430E-09 -0.6411E-09 -0.4847E-10
     -6.926 -0.1281E-07 -0.2894E-09 -0.2505E-09 -0.9886E-10 -0.4367E-11 -0.4318E-11 -0.6710E-11 -0.1816E-10 -0.1238E-11
     -6.805 -0.1709E-09 -0.3885E-11 -0.3337E-11 -0.1262E-11 -0.4643E-13 -0.5363E-13 -0.8719E-13 -0.2403E-12 -0.1521E-13
     -6.684 -0.1081E-11 -0.2466E-13 -0.2109E-13 -0.7715E-14 -0.2373E-15 -0.3199E-15 -0.5401E-15 -0.1509E-14 -0.9010E-16
     -6.564 -0.3260E-14 -0.7450E-16 -0.6362E-16 -0.2268E-16 -0.5894E-18 -0.9200E-18 -0.1604E-17 -0.4521E-17 -0.2579E-18
     -6.443 -0.4809E-17 -0.1099E-18 -0.9385E-19 -0.3397E-19 -0.9760E-21 -0.1395E-20 -0.2389E-20 -0.6700E-20 -0.3933E-21