   30   30   20    1
  0.7305754E+02  0.4450884E-09  0.3193766E-08  0.1780354E-08  0.5000000E-15
  1.000000000000000E-004
  CAR 
 Tetradymite Slab                        
    288     28    256
 
  0.0000000E+00  0.0000000E+00  0.0000000E+00  0.1388889E-01
    1      -23.274230   1.000000
    2      -23.259894   1.000000
    3      -23.227017   1.000000
    4      -23.223445   1.000000
    5      -23.203544   1.000000
    6      -23.175943   1.000000
    7      -23.171102   1.000000
    8      -23.120310   1.000000
    9      -23.112245   1.000000
   10      -23.104627   1.000000
   11      -23.086560   1.000000
   12      -23.086274   1.000000
   13      -23.050367   1.000000
   14      -23.048199   1.000000
   15      -23.032435   1.000000
   16      -23.030831   1.000000
   17      -23.028012   1.000000
   18      -22.985681   1.000000
   19      -22.985220   1.000000
   20      -22.973202   1.000000
   21      -22.857102   1.000000
   22      -22.856733   1.000000
   23      -22.856008   1.000000
   24      -22.855379   1.000000
   25      -22.790871   1.000000
   26      -22.784296   1.000000
   27      -22.780211   1.000000
   28      -22.764604   1.000000
   29      -22.764024   1.000000
   30      -22.761836   1.000000
   31      -22.760329   1.000000
   32      -22.744385   1.000000
   33      -22.740742   1.000000
   34      -22.730381   1.000000
   35      -22.717769   1.000000
   36      -22.708978   1.000000
   37      -22.703943   1.000000
   38      -22.674571   1.000000
   39      -22.673249   1.000000
   40      -22.668267   1.000000
   41      -22.664851   1.000000
   42      -22.655451   1.000000
   43      -22.653732   1.000000
   44      -22.652714   1.000000
   45      -22.636113   1.000000
   46      -22.630794   1.000000
   47      -22.625641   1.000000
   48      -22.622585   1.000000
   49      -22.602532   1.000000
   50      -22.598715   1.000000
   51      -22.560102   1.000000
   52      -22.543911   1.000000
   53      -22.540356   1.000000
   54      -22.524033   1.000000
   55      -22.523182   1.000000
   56      -22.518383   1.000000
   57      -22.512868   1.000000
   58      -22.509097   1.000000
   59      -22.496972   1.000000
   60      -22.493863   1.000000
   61      -12.695759   1.000000
   62      -12.540005   1.000000
   63      -12.389774   1.000000
   64      -12.239420   1.000000
   65      -11.923158   1.000000
   66      -11.891242   1.000000
   67      -11.830032   1.000000
   68      -11.450161   1.000000
   69      -11.422522   1.000000
   70      -11.345621   1.000000
   71      -11.044437   1.000000
   72      -10.985278   1.000000
   73      -10.557310   1.000000
   74      -10.485139   1.000000
   75      -10.277100   1.000000
   76      -10.159396   1.000000
   77       -9.928308   1.000000
   78       -9.889218   1.000000
   79       -9.379982   1.000000
   80       -9.188558   1.000000
   81       -9.141942   1.000000
   82       -8.997869   1.000000
   83       -8.955965   1.000000
   84       -8.720291   1.000000
   85       -8.625960   1.000000
   86       -8.479095   1.000000
   87       -8.282237   1.000000
   88       -8.146995   1.000000
   89       -7.917632   1.000000
   90       -7.725237   1.000000
   91       -3.841688   1.000000
   92       -3.747077   1.000000
   93       -3.647555   1.000000
   94       -3.404118   1.000000
   95       -2.929878   1.000000
   96       -2.891515   1.000000
   97       -2.817785   1.000000
   98       -2.680508   1.000000
   99       -2.609561   1.000000
  100       -2.561832   1.000000
  101       -2.500224   1.000000
  102       -2.333201   1.000000
  103       -2.317781   1.000000
  104       -2.308344   1.000000
  105       -2.261546   1.000000
  106       -2.176727   1.000000
  107       -2.056141   1.000000
  108       -2.017665   1.000000
  109       -1.945019   1.000000
  110       -1.926924   1.000000
  111       -1.875634   1.000000
  112       -1.871972   1.000000
  113       -1.761848   1.000000
  114       -1.614545   1.000000
  115       -1.584720   1.000000
  116       -1.537265   1.000000
  117       -1.526356   1.000000
  118       -1.472141   1.000000
  119       -1.406208   1.000000
  120       -1.386226   1.000000
  121       -1.282981   1.000000
  122       -1.215828   1.000000
  123       -1.187997   1.000000
  124       -1.153452   1.000000
  125       -1.146984   1.000000
  126       -1.018930   1.000000
  127       -0.973049   1.000000
  128       -0.920659   1.000000
  129       -0.768294   1.000000
  130       -0.624526   1.000000
  131       -0.565520   1.000000
  132       -0.478348   1.000000
  133       -0.360498   1.000003
  134       -0.324804   1.000011
  135       -0.304606   1.000021
  136       -0.267585   1.000062
  137       -0.173266   1.000735
  138       -0.105600   1.003149
  139       -0.069401   1.006121
  140       -0.012197   1.014664
  141        0.076155   1.033366
  142        0.137863   1.029086
  143        0.201378   0.968655
  144        0.312701   0.641170
  145        0.324827   0.591516
  146        0.567236  -0.032788
  147        0.666814  -0.023016
  148        0.810764  -0.002483
  149        0.869653  -0.000681
  150        1.005929  -0.000016
  151        1.202537  -0.000000
  152        1.341491  -0.000000
  153        1.451110  -0.000000
  154        1.619832  -0.000000
  155        1.685743  -0.000000
  156        1.751566  -0.000000
  157        1.841300  -0.000000
  158        1.926516  -0.000000
  159        1.926726  -0.000000
  160        1.982797  -0.000000
  161        2.025797  -0.000000
  162        2.147286  -0.000000
  163        2.226706  -0.000000
  164        2.244097  -0.000000
  165        2.278561  -0.000000
  166        2.409095  -0.000000
  167        2.496215  -0.000000
  168        2.568009  -0.000000
  169        2.658466  -0.000000
  170        2.700377  -0.000000
  171        2.726369  -0.000000
  172        2.831530  -0.000000
  173        2.886020  -0.000000
  174        3.000611  -0.000000
  175        3.111309  -0.000000
  176        3.270014  -0.000000
  177        3.475057  -0.000000
  178        3.477831  -0.000000
  179        3.562612  -0.000000
  180        3.875920  -0.000000
  181        3.973087  -0.000000
  182        4.051179  -0.000000
  183        4.259853  -0.000000
  184        4.455395  -0.000000
  185        4.499263  -0.000000
  186        4.577834  -0.000000
  187        4.670705  -0.000000
  188        4.816856  -0.000000
  189        4.949424  -0.000000
  190        5.104210  -0.000000
  191        5.125436  -0.000000
  192        5.230764  -0.000000
  193        5.257461  -0.000000
  194        5.330497  -0.000000
  195        5.346534  -0.000000
  196        5.493221  -0.000000
  197        5.499704  -0.000000
  198        5.658653  -0.000000
  199        5.691396  -0.000000
  200        5.775464  -0.000000
  201        5.835911   0.000000
  202        5.866080   0.000000
  203        5.899097   0.000000
  204        5.966625   0.000000
  205        6.023027   0.000000
  206        6.115876   0.000000
  207        6.188272   0.000000
  208        6.257362   0.000000
  209        6.367494   0.000000
  210        6.431352   0.000000
  211        6.487244   0.000000
  212        6.541126   0.000000
  213        6.570075   0.000000
  214        6.583628   0.000000
  215        6.686001   0.000000
  216        6.723345   0.000000
  217        6.784495   0.000000
  218        6.855327   0.000000
  219        6.894817   0.000000
  220        6.953680   0.000000
  221        6.966373   0.000000
  222        6.987459   0.000000
  223        7.034546   0.000000
  224        7.059435   0.000000
  225        7.202334   0.000000
  226        7.268701   0.000000
  227        7.318805   0.000000
  228        7.336039   0.000000
  229        7.411049   0.000000
  230        7.450406   0.000000
  231        7.501637   0.000000
  232        7.560225   0.000000
  233        7.618704   0.000000
  234        7.690036   0.000000
  235        7.708258   0.000000
  236        7.775236   0.000000
  237        7.801872   0.000000
  238        7.833049   0.000000
  239        7.870429   0.000000
  240        7.904152   0.000000
  241        7.944242   0.000000
  242        8.034617   0.000000
  243        8.112942   0.000000
  244        8.212687   0.000000
  245        8.235731   0.000000
  246        8.241446   0.000000
  247        8.261838   0.000000
  248        8.285337   0.000000
  249        8.315703   0.000000
  250        8.350601   0.000000
  251        8.389424   0.000000
  252        8.402429   0.000000
  253        8.413141   0.000000
  254        8.470487   0.000000
  255        8.500699   0.000000
  256        8.619771   0.000000
 
  0.8333333E-01 -0.8744190E-32  0.0000000E+00  0.5555556E-01
    1      -23.273542   1.000000
    2      -23.260315   1.000000
    3      -23.227276   1.000000
    4      -23.223356   1.000000
    5      -23.203425   1.000000
    6      -23.175380   1.000000
    7      -23.171353   1.000000
    8      -23.120538   1.000000
    9      -23.112195   1.000000
   10      -23.103979   1.000000
   11      -23.086681   1.000000
   12      -23.086478   1.000000
   13      -23.050288   1.000000
   14      -23.048517   1.000000
   15      -23.032277   1.000000
   16      -23.030753   1.000000
   17      -23.027803   1.000000
   18      -22.985688   1.000000
   19      -22.985378   1.000000
   20      -22.973037   1.000000
   21      -22.857607   1.000000
   22      -22.856037   1.000000
   23      -22.855968   1.000000
   24      -22.855275   1.000000
   25      -22.790672   1.000000
   26      -22.783982   1.000000
   27      -22.779983   1.000000
   28      -22.764798   1.000000
   29      -22.764200   1.000000
   30      -22.761780   1.000000
   31      -22.760285   1.000000
   32      -22.744375   1.000000
   33      -22.740952   1.000000
   34      -22.730104   1.000000
   35      -22.717456   1.000000
   36      -22.708960   1.000000
   37      -22.704102   1.000000
   38      -22.674558   1.000000
   39      -22.673431   1.000000
   40      -22.667711   1.000000
   41      -22.665382   1.000000
   42      -22.654983   1.000000
   43      -22.654112   1.000000
   44      -22.652275   1.000000
   45      -22.636675   1.000000
   46      -22.630697   1.000000
   47      -22.625168   1.000000
   48      -22.622785   1.000000
   49      -22.601989   1.000000
   50      -22.599244   1.000000
   51      -22.559823   1.000000
   52      -22.543497   1.000000
   53      -22.540323   1.000000
   54      -22.524212   1.000000
   55      -22.523712   1.000000
   56      -22.518344   1.000000
   57      -22.512357   1.000000
   58      -22.509314   1.000000
   59      -22.497526   1.000000
   60      -22.493213   1.000000
   61      -12.653990   1.000000
   62      -12.499680   1.000000
   63      -12.349051   1.000000
   64      -12.202322   1.000000
   65      -11.881524   1.000000
   66      -11.852899   1.000000
   67      -11.789027   1.000000
   68      -11.411981   1.000000
   69      -11.382534   1.000000
   70      -11.311957   1.000000
   71      -11.006372   1.000000
   72      -10.945960   1.000000
   73      -10.559692   1.000000
   74      -10.479572   1.000000
   75      -10.270446   1.000000
   76      -10.167540   1.000000
   77       -9.908708   1.000000
   78       -9.872587   1.000000
   79       -9.385533   1.000000
   80       -9.219725   1.000000
   81       -9.176820   1.000000
   82       -9.036137   1.000000
   83       -8.983758   1.000000
   84       -8.765941   1.000000
   85       -8.651614   1.000000
   86       -8.510979   1.000000
   87       -8.316354   1.000000
   88       -8.192140   1.000000
   89       -7.973499   1.000000
   90       -7.783528   1.000000
   91       -3.813748   1.000000
   92       -3.716380   1.000000
   93       -3.616069   1.000000
   94       -3.422604   1.000000
   95       -3.055596   1.000000
   96       -2.998034   1.000000
   97       -2.908499   1.000000
   98       -2.827973   1.000000
   99       -2.780873   1.000000
  100       -2.700820   1.000000
  101       -2.586442   1.000000
  102       -2.495354   1.000000
  103       -2.376603   1.000000
  104       -2.363259   1.000000
  105       -2.309366   1.000000
  106       -2.250296   1.000000
  107       -2.219264   1.000000
  108       -2.145751   1.000000
  109       -2.107391   1.000000
  110       -2.017473   1.000000
  111       -1.902186   1.000000
  112       -1.851567   1.000000
  113       -1.769343   1.000000
  114       -1.704110   1.000000
  115       -1.690404   1.000000
  116       -1.593946   1.000000
  117       -1.551164   1.000000
  118       -1.517321   1.000000
  119       -1.455203   1.000000
  120       -1.423028   1.000000
  121       -1.404940   1.000000
  122       -1.258991   1.000000
  123       -1.225001   1.000000
  124       -1.163822   1.000000
  125       -1.103380   1.000000
  126       -1.007619   1.000000
  127       -0.962736   1.000000
  128       -0.870496   1.000000
  129       -0.811224   1.000000
  130       -0.644131   1.000000
  131       -0.519346   1.000000
  132       -0.482014   1.000000
  133       -0.414297   1.000001
  134       -0.335893   1.000008
  135       -0.321891   1.000012
  136       -0.248729   1.000106
  137       -0.167821   1.000834
  138       -0.153621   1.001152
  139       -0.053115   1.008032
  140        0.007824   1.018815
  141        0.076598   1.033431
  142        0.149614   1.023490
  143        0.237623   0.893739
  144        0.279040   0.768582
  145        0.488850   0.036255
  146        0.727019  -0.010827
  147        0.762796  -0.006100
  148        0.867189  -0.000722
  149        0.945474  -0.000096
  150        0.993356  -0.000024
  151        1.225913  -0.000000
  152        1.414719  -0.000000
  153        1.600509  -0.000000
  154        1.687809  -0.000000
  155        1.748669  -0.000000
  156        1.786186  -0.000000
  157        1.842870  -0.000000
  158        1.990814  -0.000000
  159        1.995338  -0.000000
  160        2.036924  -0.000000
  161        2.098214  -0.000000
  162        2.151756  -0.000000
  163        2.254955  -0.000000
  164        2.289017  -0.000000
  165        2.323007  -0.000000
  166        2.343365  -0.000000
  167        2.490855  -0.000000
  168        2.524970  -0.000000
  169        2.627613  -0.000000
  170        2.741150  -0.000000
  171        2.855596  -0.000000
  172        2.887311  -0.000000
  173        3.030835  -0.000000
  174        3.101140  -0.000000
  175        3.150699  -0.000000
  176        3.245836  -0.000000
  177        3.354787  -0.000000
  178        3.482118  -0.000000
  179        3.576801  -0.000000
  180        3.881601  -0.000000
  181        4.048404  -0.000000
  182        4.178836  -0.000000
  183        4.351381  -0.000000
  184        4.501615  -0.000000
  185        4.599178  -0.000000
  186        4.673193  -0.000000
  187        4.774890  -0.000000
  188        4.918109  -0.000000
  189        5.022064  -0.000000
  190        5.082954  -0.000000
  191        5.146043  -0.000000
  192        5.264265  -0.000000
  193        5.300205  -0.000000
  194        5.322797  -0.000000
  195        5.372854  -0.000000
  196        5.537191  -0.000000
  197        5.619714  -0.000000
  198        5.707161  -0.000000
  199        5.745023  -0.000000
  200        5.797447  -0.000000
  201        5.854342   0.000000
  202        5.897238   0.000000
  203        5.972243   0.000000
  204        6.051782   0.000000
  205        6.076189   0.000000
  206        6.138655   0.000000
  207        6.237797   0.000000
  208        6.246949   0.000000
  209        6.308340   0.000000
  210        6.367265   0.000000
  211        6.432693   0.000000
  212        6.488676   0.000000
  213        6.538437   0.000000
  214        6.547918   0.000000
  215        6.609766   0.000000
  216        6.643005   0.000000
  217        6.696415   0.000000
  218        6.759412   0.000000
  219        6.799152   0.000000
  220        6.870439   0.000000
  221        6.947677   0.000000
  222        6.997467   0.000000
  223        7.069772   0.000000
  224        7.108108   0.000000
  225        7.226034   0.000000
  226        7.243971   0.000000
  227        7.280730   0.000000
  228        7.333171   0.000000
  229        7.377580   0.000000
  230        7.448482   0.000000
  231        7.480587   0.000000
  232        7.563580   0.000000
  233        7.594810   0.000000
  234        7.688818   0.000000
  235        7.718116   0.000000
  236        7.769505   0.000000
  237        7.788952   0.000000
  238        7.826292   0.000000
  239        7.893469   0.000000
  240        7.934236   0.000000
  241        7.974760   0.000000
  242        8.028753   0.000000
  243        8.057504   0.000000
  244        8.097018   0.000000
  245        8.176450   0.000000
  246        8.198353   0.000000
  247        8.240349   0.000000
  248        8.291349   0.000000
  249        8.348793   0.000000
  250        8.370111   0.000000
  251        8.416035   0.000000
  252        8.485935   0.000000
  253        8.514736   0.000000
  254        8.537529   0.000000
  255        8.577801   0.000000
  256        8.673604   0.000000
 
  0.1666667E+00 -0.4687934E-31  0.0000000E+00  0.5555556E-01
    1      -23.271691   1.000000
    2      -23.261444   1.000000
    3      -23.227993   1.000000
    4      -23.223110   1.000000
    5      -23.203072   1.000000
    6      -23.174756   1.000000
    7      -23.171109   1.000000
    8      -23.121170   1.000000
    9      -23.112068   1.000000
   10      -23.102215   1.000000
   11      -23.087799   1.000000
   12      -23.086229   1.000000
   13      -23.050067   1.000000
   14      -23.049392   1.000000
   15      -23.033123   1.000000
   16      -23.029256   1.000000
   17      -23.027203   1.000000
   18      -22.986048   1.000000
   19      -22.985485   1.000000
   20      -22.972559   1.000000
   21      -22.858786   1.000000
   22      -22.857125   1.000000
   23      -22.854337   1.000000
   24      -22.853736   1.000000
   25      -22.790114   1.000000
   26      -22.783136   1.000000
   27      -22.779348   1.000000
   28      -22.765304   1.000000
   29      -22.764722   1.000000
   30      -22.761605   1.000000
   31      -22.760150   1.000000
   32      -22.744325   1.000000
   33      -22.741520   1.000000
   34      -22.729367   1.000000
   35      -22.716609   1.000000
   36      -22.708894   1.000000
   37      -22.704545   1.000000
   38      -22.674507   1.000000
   39      -22.673934   1.000000
   40      -22.666810   1.000000
   41      -22.666164   1.000000
   42      -22.655528   1.000000
   43      -22.653305   1.000000
   44      -22.651146   1.000000
   45      -22.638218   1.000000
   46      -22.630446   1.000000
   47      -22.623799   1.000000
   48      -22.623336   1.000000
   49      -22.600753   1.000000
   50      -22.600418   1.000000
   51      -22.559074   1.000000
   52      -22.542407   1.000000
   53      -22.540222   1.000000
   54      -22.525170   1.000000
   55      -22.524715   1.000000
   56      -22.518229   1.000000
   57      -22.510948   1.000000
   58      -22.509866   1.000000
   59      -22.498944   1.000000
   60      -22.491502   1.000000
   61      -12.530317   1.000000
   62      -12.380772   1.000000
   63      -12.228922   1.000000
   64      -12.093665   1.000000
   65      -11.758164   1.000000
   66      -11.740002   1.000000
   67      -11.667540   1.000000
   68      -11.300928   1.000000
   69      -11.265269   1.000000
   70      -11.215185   1.000000
   71      -10.897343   1.000000
   72      -10.832055   1.000000
   73      -10.571991   1.000000
   74      -10.470086   1.000000
   75      -10.267277   1.000000
   76      -10.194187   1.000000
   77       -9.856116   1.000000
   78       -9.824748   1.000000
   79       -9.413586   1.000000
   80       -9.308038   1.000000
   81       -9.276552   1.000000
   82       -9.153298   1.000000
   83       -9.076630   1.000000
   84       -8.904672   1.000000
   85       -8.707718   1.000000
   86       -8.608275   1.000000
   87       -8.416627   1.000000
   88       -8.321745   1.000000
   89       -8.138529   1.000000
   90       -7.956098   1.000000
   91       -3.738386   1.000000
   92       -3.654832   1.000000
   93       -3.587856   1.000000
   94       -3.536065   1.000000
   95       -3.374596   1.000000
   96       -3.297835   1.000000
   97       -3.235496   1.000000
   98       -3.055652   1.000000
   99       -2.984789   1.000000
  100       -2.927089   1.000000
  101       -2.759383   1.000000
  102       -2.674505   1.000000
  103       -2.667768   1.000000
  104       -2.629081   1.000000
  105       -2.546584   1.000000
  106       -2.479318   1.000000
  107       -2.326884   1.000000
  108       -2.314637   1.000000
  109       -2.205855   1.000000
  110       -2.091443   1.000000
  111       -1.989212   1.000000
  112       -1.986501   1.000000
  113       -1.934281   1.000000
  114       -1.820665   1.000000
  115       -1.799097   1.000000
  116       -1.741316   1.000000
  117       -1.696269   1.000000
  118       -1.612894   1.000000
  119       -1.603235   1.000000
  120       -1.534097   1.000000
  121       -1.453958   1.000000
  122       -1.438471   1.000000
  123       -1.386258   1.000000
  124       -1.335560   1.000000
  125       -1.213665   1.000000
  126       -1.162719   1.000000
  127       -1.078660   1.000000
  128       -0.977645   1.000000
  129       -0.909174   1.000000
  130       -0.605772   1.000000
  131       -0.576719   1.000000
  132       -0.521910   1.000000
  133       -0.488953   1.000000
  134       -0.407041   1.000001
  135       -0.329591   1.000009
  136       -0.247504   1.000110
  137       -0.186383   1.000537
  138       -0.145224   1.001387
  139       -0.097940   1.003649
  140        0.022490   1.022119
  141        0.090631   1.035024
  142        0.159469   1.017095
  143        0.304799   0.672650
  144        0.348859   0.490432
  145        0.727839  -0.010696
  146        0.823505  -0.001910
  147        0.901772  -0.000309
  148        0.972388  -0.000045
  149        1.101874  -0.000001
  150        1.135153  -0.000000
  151        1.282420  -0.000000
  152        1.516278  -0.000000
  153        1.659199  -0.000000
  154        1.767626  -0.000000
  155        1.805017  -0.000000
  156        1.879611  -0.000000
  157        2.017742  -0.000000
  158        2.068784  -0.000000
  159        2.086398  -0.000000
  160        2.149199  -0.000000
  161        2.281758  -0.000000
  162        2.321719  -0.000000
  163        2.364724  -0.000000
  164        2.430329  -0.000000
  165        2.434756  -0.000000
  166        2.518162  -0.000000
  167        2.607514  -0.000000
  168        2.757575  -0.000000
  169        2.794104  -0.000000
  170        2.863753  -0.000000
  171        2.911845  -0.000000
  172        2.985676  -0.000000
  173        3.060487  -0.000000
  174        3.234707  -0.000000
  175        3.297169  -0.000000
  176        3.324383  -0.000000
  177        3.469156  -0.000000
  178        3.537149  -0.000000
  179        3.614409  -0.000000
  180        3.839545  -0.000000
  181        4.257583  -0.000000
  182        4.441570  -0.000000
  183        4.577246  -0.000000
  184        4.666088  -0.000000
  185        4.770135  -0.000000
  186        4.896403  -0.000000
  187        5.010958  -0.000000
  188        5.068784  -0.000000
  189        5.139034  -0.000000
  190        5.197788  -0.000000
  191        5.272003  -0.000000
  192        5.305160  -0.000000
  193        5.347422  -0.000000
  194        5.394172  -0.000000
  195        5.461753  -0.000000
  196        5.499006  -0.000000
  197        5.531566  -0.000000
  198        5.617114  -0.000000
  199        5.732607  -0.000000
  200        5.801083  -0.000000
  201        5.843426   0.000000
  202        5.918928   0.000000
  203        6.054405   0.000000
  204        6.086776   0.000000
  205        6.126466   0.000000
  206        6.242559   0.000000
  207        6.272998   0.000000
  208        6.312249   0.000000
  209        6.322410   0.000000
  210        6.380675   0.000000
  211        6.448547   0.000000
  212        6.488973   0.000000
  213        6.586691   0.000000
  214        6.660074   0.000000
  215        6.723452   0.000000
  216        6.737564   0.000000
  217        6.793259   0.000000
  218        6.818327   0.000000
  219        6.887246   0.000000
  220        6.915602   0.000000
  221        6.936267   0.000000
  222        6.990764   0.000000
  223        7.050891   0.000000
  224        7.161759   0.000000
  225        7.193819   0.000000
  226        7.225278   0.000000
  227        7.314746   0.000000
  228        7.346482   0.000000
  229        7.400724   0.000000
  230        7.455653   0.000000
  231        7.487286   0.000000
  232        7.534679   0.000000
  233        7.564518   0.000000
  234        7.599208   0.000000
  235        7.667106   0.000000
  236        7.686310   0.000000
  237        7.748710   0.000000
  238        7.807177   0.000000
  239        7.846723   0.000000
  240        7.895580   0.000000
  241        7.924758   0.000000
  242        7.962577   0.000000
  243        8.005436   0.000000
  244        8.058479   0.000000
  245        8.087136   0.000000
  246        8.155130   0.000000
  247        8.186853   0.000000
  248        8.276648   0.000000
  249        8.356275   0.000000
  250        8.390250   0.000000
  251        8.436295   0.000000
  252        8.470533   0.000000
  253        8.488257   0.000000
  254        8.556736   0.000000
  255        8.586193   0.000000
  256        8.649813   0.000000
 
  0.2500000E+00 -0.5562353E-31  0.0000000E+00  0.2777778E-01
    1      -23.269304   1.000000
    2      -23.262912   1.000000
    3      -23.228960   1.000000
    4      -23.222763   1.000000
    5      -23.202562   1.000000
    6      -23.175872   1.000000
    7      -23.168836   1.000000
    8      -23.122027   1.000000
    9      -23.111907   1.000000
   10      -23.099821   1.000000
   11      -23.089389   1.000000
   12      -23.085877   1.000000
   13      -23.050597   1.000000
   14      -23.049736   1.000000
   15      -23.034757   1.000000
   16      -23.026784   1.000000
   17      -23.026342   1.000000
   18      -22.986773   1.000000
   19      -22.985393   1.000000
   20      -22.971875   1.000000
   21      -22.860382   1.000000
   22      -22.858786   1.000000
   23      -22.852075   1.000000
   24      -22.851587   1.000000
   25      -22.789328   1.000000
   26      -22.782006   1.000000
   27      -22.778465   1.000000
   28      -22.766004   1.000000
   29      -22.765440   1.000000
   30      -22.761351   1.000000
   31      -22.759970   1.000000
   32      -22.744259   1.000000
   33      -22.742303   1.000000
   34      -22.728401   1.000000
   35      -22.715481   1.000000
   36      -22.708813   1.000000
   37      -22.705156   1.000000
   38      -22.674633   1.000000
   39      -22.674431   1.000000
   40      -22.668729   1.000000
   41      -22.664033   1.000000
   42      -22.657211   1.000000
   43      -22.651247   1.000000
   44      -22.649727   1.000000
   45      -22.640327   1.000000
   46      -22.630155   1.000000
   47      -22.624099   1.000000
   48      -22.621767   1.000000
   49      -22.602675   1.000000
   50      -22.598385   1.000000
   51      -22.558089   1.000000
   52      -22.541010   1.000000
   53      -22.540077   1.000000
   54      -22.527185   1.000000
   55      -22.525404   1.000000
   56      -22.518084   1.000000
   57      -22.510792   1.000000
   58      -22.508751   1.000000
   59      -22.500849   1.000000
   60      -22.489175   1.000000
   61      -12.330126   1.000000
   62      -12.190269   1.000000
   63      -12.036272   1.000000
   64      -11.921854   1.000000
   65      -11.560867   1.000000
   66      -11.557954   1.000000
   67      -11.470655   1.000000
   68      -11.132591   1.000000
   69      -11.080306   1.000000
   70      -11.069585   1.000000
   71      -10.742703   1.000000
   72      -10.675008   1.000000
   73      -10.598208   1.000000
   74      -10.466749   1.000000
   75      -10.338406   1.000000
   76      -10.214881   1.000000
   77       -9.791384   1.000000
   78       -9.751175   1.000000
   79       -9.508311   1.000000
   80       -9.429126   1.000000
   81       -9.425187   1.000000
   82       -9.350258   1.000000
   83       -9.225439   1.000000
   84       -9.112359   1.000000
   85       -8.783083   1.000000
   86       -8.756768   1.000000
   87       -8.564970   1.000000
   88       -8.518585   1.000000
   89       -8.398495   1.000000
   90       -8.231512   1.000000
   91       -3.965628   1.000000
   92       -3.723306   1.000000
   93       -3.645251   1.000000
   94       -3.594879   1.000000
   95       -3.551486   1.000000
   96       -3.482487   1.000000
   97       -3.345686   1.000000
   98       -3.300033   1.000000
   99       -3.217951   1.000000
  100       -3.145056   1.000000
  101       -2.988583   1.000000
  102       -2.962640   1.000000
  103       -2.828838   1.000000
  104       -2.774422   1.000000
  105       -2.708638   1.000000
  106       -2.601131   1.000000
  107       -2.515101   1.000000
  108       -2.492180   1.000000
  109       -2.341726   1.000000
  110       -2.254896   1.000000
  111       -2.192611   1.000000
  112       -2.152456   1.000000
  113       -2.114643   1.000000
  114       -2.067209   1.000000
  115       -2.003586   1.000000
  116       -1.896309   1.000000
  117       -1.873552   1.000000
  118       -1.826003   1.000000
  119       -1.778460   1.000000
  120       -1.745338   1.000000
  121       -1.655932   1.000000
  122       -1.597940   1.000000
  123       -1.507709   1.000000
  124       -1.412576   1.000000
  125       -1.292374   1.000000
  126       -1.233404   1.000000
  127       -1.153504   1.000000