       N       E                     dE             d eps       ncg     rms          rms(c)
DAV:   1     0.166585011834E+04    0.16659E+04   -0.98874E+04 14336   0.618E+02
DAV:   2     0.696327254635E+01   -0.16589E+04   -0.16278E+04 17920   0.196E+02
DAV:   3    -0.104035637353E+03   -0.11100E+03   -0.11082E+03 17664   0.626E+01
DAV:   4    -0.107186996107E+03   -0.31514E+01   -0.31512E+01 24960   0.115E+01
DAV:   5    -0.107210848169E+03   -0.23852E-01   -0.23852E-01 20480   0.752E-01    0.919E+00
RMM:   6    -0.103941838239E+03    0.32690E+01   -0.62958E+00 14349   0.289E+00    0.763E+00
RMM:   7    -0.101621476242E+03    0.23204E+01   -0.12099E+00 15804   0.178E+00    0.356E+00
RMM:   8    -0.101344657695E+03    0.27682E+00   -0.17927E-01 14772   0.564E-01    0.229E+00
RMM:   9    -0.101402954673E+03   -0.58297E-01   -0.59032E-02 15289   0.374E-01    0.223E+00
RMM:  10    -0.101140282181E+03    0.26267E+00   -0.84795E-02 14816   0.397E-01    0.997E-01
RMM:  11    -0.101102915650E+03    0.37367E-01   -0.21149E-02 15473   0.244E-01    0.267E-01
RMM:  12    -0.101104203985E+03   -0.12883E-02   -0.30708E-03 15154   0.849E-02    0.190E-01
RMM:  13    -0.101107886445E+03   -0.36825E-02   -0.12541E-03 14731   0.475E-02    0.229E-01
RMM:  14    -0.101107038094E+03    0.84835E-03   -0.33162E-04 15573   0.273E-02    0.127E-01
RMM:  15    -0.101109477419E+03   -0.24393E-02   -0.12513E-03 14342   0.406E-02    0.430E-02
RMM:  16    -0.101110941960E+03   -0.14645E-02   -0.38508E-04 14644   0.209E-02    0.299E-02
RMM:  17    -0.101111790832E+03   -0.84887E-03   -0.12916E-04 14162   0.152E-02    0.311E-02
RMM:  18    -0.101112184506E+03   -0.39367E-03    0.49002E-04 13500   0.957E-03    0.125E-02
RMM:  19    -0.101110548656E+03    0.16359E-02    0.61313E-03 12950   0.682E-03    0.168E-02
RMM:  20    -0.101120268426E+03   -0.97198E-02    0.54140E-02 13066  -0.204E-03    0.129E-01
RMM:  21    -0.101191073259E+03   -0.70805E-01   -0.11767E-01 12311   0.250E-02    0.361E-01
RMM:  22    -0.101200388095E+03   -0.93148E-02   -0.16036E+00 12865   0.177E-01    0.273E-01
RMM:  23    -0.101247165025E+03   -0.46777E-01   -0.10697E+00 13874   0.119E-01    0.732E-01
RMM:  24    -0.101356236151E+03   -0.10907E+00   -0.27676E+00 13555   0.301E-01    0.627E-01
RMM:  25    -0.101400495363E+03   -0.44259E-01   -0.44978E+00 15495   0.440E-01    0.818E-01
RMM:  26    -0.101557640716E+03   -0.15715E+00   -0.50688E+00 14654   0.525E-01    0.960E-01
RMM:  27    -0.101729362909E+03   -0.17172E+00   -0.80300E+00 15184   0.698E-01    0.975E-01
RMM:  28    -0.101543053112E+03    0.18631E+00   -0.10088E+01 15304   0.805E-01    0.598E-01
RMM:  29    -0.101616603418E+03   -0.73550E-01   -0.37514E+00 15429   0.346E-01    0.705E-01
RMM:  30    -0.101377383068E+03    0.23922E+00   -0.74428E+00 15225   0.573E-01    0.430E-01
RMM:  31    -0.101242365563E+03    0.13502E+00   -0.49178E+00 14994   0.354E-01    0.235E-01
RMM:  32    -0.101353118097E+03   -0.11075E+00   -0.29538E+00 13929   0.201E-01    0.290E-01
RMM:  33    -0.101386617077E+03   -0.33499E-01   -0.24032E+00 13599   0.207E-01    0.272E-01
RMM:  34    -0.101208734644E+03    0.17788E+00   -0.34188E+00 13273   0.249E-01    0.190E-01
RMM:  35    -0.101149131258E+03    0.59603E-01   -0.20753E+00 13283   0.159E-01    0.146E-01
RMM:  36    -0.101181949061E+03   -0.32818E-01   -0.70301E-01 13233   0.817E-02    0.111E-01
RMM:  37    -0.101266584236E+03   -0.84635E-01   -0.11251E+00 12786   0.840E-02    0.273E-01
RMM:  38    -0.101410711758E+03   -0.14413E+00   -0.31280E+00 12231   0.252E-01    0.456E-01
RMM:  39    -0.101333359399E+03    0.77352E-01   -0.45979E+00 13392   0.391E-01    0.523E-01
RMM:  40    -0.101432923780E+03   -0.99564E-01   -0.50298E+00 13871   0.438E-01    0.595E-01
RMM:  41    -0.101563155002E+03   -0.13023E+00   -0.55094E+00 13356   0.474E-01    0.582E-01
RMM:  42    -0.101250139895E+03    0.31302E+00   -0.87084E+00 13763   0.627E-01    0.336E-01
RMM:  43    -0.101317358224E+03   -0.67218E-01   -0.45119E+00 12899   0.340E-01    0.413E-01
RMM:  44    -0.101187930943E+03    0.12943E+00   -0.66221E+00 13342   0.464E-01    0.241E-01
RMM:  45    -0.101227102845E+03   -0.39172E-01   -0.25199E+00 12728   0.216E-01    0.308E-01
RMM:  46    -0.101218122824E+03    0.89800E-02   -0.42623E+00 12351   0.309E-01    0.351E-01
RMM:  47    -0.101328421199E+03   -0.11030E+00   -0.59673E+00 12931   0.405E-01    0.444E-01
RMM:  48    -0.101269587091E+03    0.58834E-01   -0.65170E+00 13092   0.473E-01    0.297E-01
RMM:  49    -0.101210842861E+03    0.58744E-01   -0.57482E+00 13032   0.374E-01    0.245E-01
RMM:  50    -0.101232153308E+03   -0.21310E-01   -0.33583E+00 12723   0.263E-01    0.349E-01
RMM:  51    -0.101268872663E+03   -0.36719E-01   -0.44696E+00 12765   0.345E-01    0.417E-01
RMM:  52    -0.101289233326E+03   -0.20361E-01   -0.76830E+00 12889   0.499E-01    0.453E-01
RMM:  53    -0.101224705010E+03    0.64528E-01   -0.87640E+00 12869   0.566E-01    0.292E-01
RMM:  54    -0.101239022436E+03   -0.14317E-01   -0.50271E+00 13009   0.342E-01    0.308E-01
RMM:  55    -0.101165000779E+03    0.74022E-01   -0.63597E+00 12620   0.393E-01    0.228E-01
RMM:  56    -0.101187666120E+03   -0.22665E-01   -0.38245E+00 13238   0.262E-01    0.309E-01
RMM:  57    -0.101235503550E+03   -0.47837E-01   -0.52891E+00 12107   0.365E-01    0.372E-01
RMM:  58    -0.101216937955E+03    0.18566E-01   -0.73112E+00 12901   0.467E-01    0.322E-01
RMM:  59    -0.101218645740E+03   -0.17078E-02   -0.63215E+00 12764   0.397E-01    0.350E-01
RMM:  60    -0.101171649292E+03    0.46996E-01   -0.63827E+00 12635   0.422E-01    0.305E-01
RMM:  61    -0.101228316806E+03   -0.56668E-01   -0.58344E+00 14643   0.373E-01    0.341E-01
RMM:  62    -0.101344109068E+03   -0.11579E+00   -0.55841E+00 13364   0.398E-01    0.408E-01
RMM:  63    -0.101261588917E+03    0.82520E-01   -0.84187E+00 12797   0.530E-01    0.335E-01
RMM:  64    -0.101218048269E+03    0.43541E-01   -0.59302E+00 13355   0.399E-01    0.309E-01
RMM:  65    -0.101243135359E+03   -0.25087E-01   -0.60535E+00 12431   0.391E-01    0.322E-01
RMM:  66    -0.101167966171E+03    0.75169E-01   -0.56900E+00 14587   0.383E-01    0.242E-01
RMM:  67    -0.101199260821E+03   -0.31295E-01   -0.49561E+00 13728   0.318E-01    0.215E-01
RMM:  68    -0.101205631901E+03   -0.63711E-02   -0.46161E+00 13362   0.289E-01    0.313E-01
RMM:  69    -0.101131404080E+03    0.74228E-01   -0.52669E+00 13030   0.361E-01    0.132E-01
RMM:  70    -0.101231799355E+03   -0.10040E+00   -0.21096E+00 14033   0.155E-01    0.373E-01
RMM:  71    -0.101264450570E+03   -0.32651E-01   -0.73870E+00 14089   0.468E-01    0.455E-01
RMM:  72    -0.101334079508E+03   -0.69629E-01   -0.65224E+00 12767   0.491E-01    0.544E-01
RMM:  73    -0.101197337264E+03    0.13674E+00   -0.11242E+01 12976   0.693E-01    0.196E-01
RMM:  74    -0.101205391477E+03   -0.80542E-02   -0.31553E+00 13325   0.227E-01    0.280E-01
RMM:  75    -0.101192173791E+03    0.13218E-01   -0.58342E+00 12880   0.358E-01    0.250E-01
RMM:  76    -0.101188173960E+03    0.39998E-02   -0.43233E+00 13062   0.296E-01    0.234E-01
RMM:  77    -0.101207695923E+03   -0.19522E-01   -0.43549E+00 13231   0.296E-01    0.319E-01
RMM:  78    -0.101195946843E+03    0.11749E-01   -0.57265E+00 12142   0.389E-01    0.377E-01
RMM:  79    -0.101214090031E+03   -0.18143E-01   -0.64769E+00 12872   0.446E-01    0.364E-01
RMM:  80    -0.101224687119E+03   -0.10597E-01   -0.66698E+00 12797   0.438E-01
   1 F= -.10122469E+03 E0= -.10122400E+03  d E =-.101225E+03
       N       E                     dE             d eps       ncg     rms          rms(c)
DAV:   1    -0.101434506911E+03   -0.22042E+00   -0.22449E+02 14336   0.194E+01    0.921E-01
RMM:   2    -0.102003803558E+03   -0.56930E+00   -0.56915E+00 14381   0.389E+00    0.634E-01
RMM:   3    -0.102079647824E+03   -0.75844E-01   -0.57987E-01 17495   0.140E+00    0.102E+00
RMM:   4    -0.102024886252E+03    0.54762E-01   -0.12060E-02 14796   0.206E-01    0.347E-01
RMM:   5    -0.102024460238E+03    0.42601E-03   -0.20993E-03 17245   0.825E-02    0.320E-01
RMM:   6    -0.102023139566E+03    0.13207E-02   -0.80848E-04 14566   0.437E-02    0.246E-01
RMM:   7    -0.102022063517E+03    0.10760E-02   -0.19838E-03 14420   0.824E-02    0.995E-02
RMM:   8    -0.102022148734E+03   -0.85217E-04   -0.97448E-04 15486   0.562E-02    0.592E-02
RMM:   9    -0.102022054130E+03    0.94604E-04   -0.15704E-04 15972   0.212E-02    0.425E-02
RMM:  10    -0.102022012848E+03    0.41282E-04   -0.43436E-05 14490   0.136E-02    0.250E-02
RMM:  11    -0.102022008360E+03    0.44875E-05   -0.81367E-05 14792   0.182E-02    0.851E-03
RMM:  12    -0.102022021233E+03   -0.12873E-04    0.57010E-06 14767   0.571E-03    0.550E-03
RMM:  13    -0.102022032962E+03   -0.11729E-04    0.27749E-05 11334   0.272E-03    0.296E-03
RMM:  14    -0.102022046497E+03   -0.13535E-04    0.49980E-05 10873   0.221E-03    0.175E-03
RMM:  15    -0.102022055491E+03   -0.89940E-05    0.93916E-05 10577   0.132E-03    0.116E-03
RMM:  16    -0.102022055745E+03   -0.25392E-06    0.19119E-04  9997   0.793E-04    0.635E-04
RMM:  17    -0.102022060815E+03   -0.50701E-05    0.22636E-04  9398   0.575E-04    0.512E-04
RMM:  18    -0.102022060649E+03    0.16662E-06    0.25435E-04  8003   0.414E-04    0.367E-04
RMM:  19    -0.102022056952E+03    0.36968E-05    0.33405E-04  7697   0.368E-04    0.202E-04
RMM:  20    -0.102022029268E+03    0.27684E-04    0.64190E-04  7454   0.330E-04    0.538E-04
RMM:  21    -0.102021996474E+03    0.32794E-04    0.15571E-03  6676   0.170E-04    0.969E-04
RMM:  22    -0.102021824179E+03    0.17230E-03    0.32050E-03  6694   0.600E-05    0.328E-03
RMM:  23    -0.102021806954E+03    0.17225E-04    0.59051E-03  6729  -0.691E-04    0.249E-03
RMM:  24    -0.102021498964E+03    0.30799E-03    0.61633E-03  6634  -0.525E-04    0.590E-03
RMM:  25    -0.102019910447E+03    0.15885E-02    0.23173E-02  6700  -0.229E-03    0.181E-02
RMM:  26    -0.102019099119E+03    0.81133E-03    0.87805E-02  8172  -0.980E-03    0.182E-02
RMM:  27    -0.102022657257E+03   -0.35581E-02    0.57765E-02  8022  -0.677E-03    0.396E-02
RMM:  28    -0.102101555414E+03   -0.78898E-01   -0.11226E-01  9307   0.167E-02    0.225E-01
RMM:  29    -0.102077225931E+03    0.24329E-01   -0.23249E+00 12004   0.187E-01    0.226E-01
RMM:  30    -0.102117964785E+03   -0.40739E-01   -0.38102E+00 13124   0.257E-01    0.288E-01
RMM:  31    -0.102123417581E+03   -0.54528E-02   -0.43236E+00 12781   0.305E-01    0.407E-01
RMM:  32    -0.102086445015E+03    0.36973E-01   -0.50482E+00 13215   0.379E-01    0.262E-01
RMM:  33    -0.102118456535E+03   -0.32012E-01   -0.47756E+00 12719   0.304E-01    0.336E-01
RMM:  34    -0.102167242190E+03   -0.48786E-01   -0.56840E+00 12922   0.389E-01    0.390E-01
RMM:  35    -0.102126096290E+03    0.41146E-01   -0.65474E+00 12985   0.439E-01    0.298E-01
RMM:  36    -0.102155995005E+03   -0.29899E-01   -0.39396E+00 13099   0.301E-01    0.444E-01
RMM:  37    -0.102097385244E+03    0.58610E-01   -0.75279E+00 12763   0.507E-01    0.287E-01
RMM:  38    -0.102124033840E+03   -0.26649E-01   -0.54934E+00 13032   0.361E-01    0.265E-01
RMM:  39    -0.102112082840E+03    0.11951E-01   -0.48589E+00 12783   0.325E-01    0.193E-01
RMM:  40    -0.102075216549E+03    0.36866E-01   -0.31428E+00 12440   0.222E-01    0.140E-01
RMM:  41    -0.102086035469E+03   -0.10819E-01   -0.27723E+00 10741   0.176E-01    0.177E-01
RMM:  42    -0.102085805168E+03    0.23030E-03   -0.23029E+00 10706   0.184E-01    0.190E-01
RMM:  43    -0.102038546382E+03    0.47259E-01   -0.34262E+00 11521   0.233E-01    0.103E-01
RMM:  44    -0.102165224147E+03   -0.12668E+00   -0.14277E+00 10936   0.106E-01    0.304E-01
RMM:  45    -0.102195301838E+03   -0.30078E-01   -0.50024E+00 12417   0.360E-01    0.543E-01
RMM:  46    -0.102200909790E+03   -0.56080E-02   -0.91472E+00 12588   0.650E-01    0.455E-01
RMM:  47    -0.102222262803E+03   -0.21353E-01   -0.83687E+00 13059   0.568E-01    0.456E-01
RMM:  48    -0.102232811415E+03   -0.10549E-01   -0.71764E+00 12801   0.511E-01    0.368E-01
RMM:  49    -0.102094118850E+03    0.13869E+00   -0.72407E+00 12868   0.467E-01    0.211E-01
RMM:  50    -0.102112179273E+03   -0.18060E-01   -0.39220E+00 12499   0.260E-01    0.188E-01
RMM:  51    -0.102109882968E+03    0.22963E-02   -0.30177E+00 12440   0.217E-01    0.297E-01
RMM:  52    -0.102090448050E+03    0.19435E-01   -0.60690E+00 12181   0.382E-01    0.252E-01
RMM:  53    -0.102104510612E+03   -0.14063E-01   -0.51385E+00 12694   0.335E-01    0.223E-01
RMM:  54    -0.102163984217E+03   -0.59474E-01   -0.41713E+00 11988   0.280E-01    0.306E-01
RMM:  55    -0.102199152284E+03   -0.35168E-01   -0.56530E+00 12396   0.381E-01    0.443E-01
RMM:  56    -0.102095188902E+03    0.10396E+00   -0.87139E+00 12854   0.566E-01    0.266E-01
RMM:  57    -0.102060918476E+03    0.34270E-01   -0.48020E+00 12647   0.329E-01    0.214E-01
RMM:  58    -0.102124330004E+03   -0.63412E-01   -0.38690E+00 11949   0.257E-01    0.392E-01
RMM:  59    -0.102091885659E+03    0.32444E-01   -0.63884E+00 12270   0.449E-01    0.263E-01
RMM:  60    -0.102116419795E+03   -0.24534E-01   -0.47999E+00 12667   0.323E-01    0.257E-01
RMM:  61    -0.102113343422E+03    0.30764E-02   -0.50219E+00 12122   0.332E-01    0.261E-01
RMM:  62    -0.102140043545E+03   -0.26700E-01   -0.45583E+00 12102   0.316E-01    0.352E-01
RMM:  63    -0.102182963285E+03   -0.42920E-01   -0.69369E+00 12253   0.456E-01    0.344E-01
RMM:  64    -0.102193067265E+03   -0.10104E-01   -0.71067E+00 12862   0.451E-01    0.432E-01
RMM:  65    -0.102127724559E+03    0.65343E-01   -0.89834E+00 12585   0.579E-01    0.323E-01
RMM:  66    -0.102150776463E+03   -0.23052E-01   -0.61007E+00 12838   0.402E-01    0.323E-01
RMM:  67    -0.102076874371E+03    0.73902E-01   -0.64774E+00 12952   0.423E-01    0.219E-01
RMM:  68    -0.102163879228E+03   -0.87005E-01   -0.41164E+00 12296   0.277E-01    0.268E-01
RMM:  69    -0.102113516373E+03    0.50363E-01   -0.54711E+00 12594   0.355E-01    0.274E-01
RMM:  70    -0.102162412684E+03   -0.48896E-01   -0.47246E+00 12565   0.335E-01    0.261E-01
RMM:  71    -0.102072272153E+03    0.90141E-01   -0.56116E+00 12832   0.353E-01    0.256E-01
RMM:  72    -0.102151192562E+03   -0.78920E-01   -0.47718E+00 14459   0.329E-01    0.326E-01
RMM:  73    -0.102079003567E+03    0.72189E-01   -0.65345E+00 12704   0.422E-01    0.244E-01
RMM:  74    -0.102075075174E+03    0.39284E-02   -0.44843E+00 13447   0.307E-01    0.241E-01
RMM:  75    -0.102156426349E+03   -0.81351E-01   -0.49229E+00 13147   0.312E-01    0.386E-01
RMM:  76    -0.102211273652E+03   -0.54847E-01   -0.78917E+00 12394   0.512E-01    0.408E-01
RMM:  77    -0.102099472679E+03    0.11180E+00   -0.89000E+00 14665   0.555E-01    0.287E-01
RMM:  78    -0.102141716473E+03   -0.42244E-01   -0.44968E+00 13217   0.329E-01    0.363E-01
RMM:  79    -0.102118379135E+03    0.23337E-01   -0.65828E+00 12196   0.444E-01    0.391E-01
RMM:  80    -0.102149640878E+03   -0.31262E-01   -0.76351E+00 12765   0.497E-01
   2 F= -.10214964E+03 E0= -.10215246E+03  d E =-.924954E+00
       N       E                     dE             d eps       ncg     rms          rms(c)
DAV:   1    -0.966786933310E+02    0.54397E+01   -0.25052E+03 14336   0.877E+01    0.268E+00
RMM:   2    -0.102805588861E+03   -0.61269E+01   -0.62190E+01 14336   0.130E+01    0.152E+00
RMM:   3    -0.103295286310E+03   -0.48970E+00   -0.33130E+00 16695   0.354E+00    0.236E+00
RMM:   4    -0.102970577630E+03    0.32471E+00   -0.42320E-01 15737   0.975E-01    0.903E-01
RMM:   5    -0.102962656748E+03    0.79209E-02   -0.29896E-02 16091   0.329E-01    0.719E-01
RMM:   6    -0.102976311908E+03   -0.13655E-01   -0.12729E-02 14739   0.196E-01    0.665E-01
RMM:   7    -0.102959070201E+03    0.17242E-01   -0.11790E-02 14626   0.193E-01    0.334E-01
RMM:   8    -0.102957153289E+03    0.19169E-02   -0.61404E-03 15592   0.146E-01    0.150E-01
RMM:   9    -0.102956666241E+03    0.48705E-03   -0.10437E-03 15847   0.600E-02    0.101E-01
RMM:  10    -0.102956513535E+03    0.15271E-03   -0.43516E-04 14826   0.381E-02    0.554E-02
RMM:  11    -0.102956634318E+03   -0.12078E-03   -0.47047E-04 14872   0.405E-02    0.208E-02
RMM:  12    -0.102956800516E+03   -0.16620E-03   -0.91792E-05 16070   0.161E-02    0.149E-02
RMM:  13    -0.102956946768E+03   -0.14625E-03   -0.10554E-05 14136   0.910E-03    0.728E-03
RMM:  14    -0.102957143158E+03   -0.19639E-03    0.23958E-05 13751   0.662E-03    0.434E-03
RMM:  15    -0.102957227449E+03   -0.84291E-04    0.32046E-04 12065   0.373E-03    0.255E-03
RMM:  16    -0.102957324170E+03   -0.96721E-04    0.89522E-04 11781   0.287E-03    0.175E-03
RMM:  17    -0.102957086779E+03    0.23739E-03    0.28610E-04 11645   0.231E-03    0.307E-03
RMM:  18    -0.102957050784E+03    0.35995E-04    0.64331E-03  9455  -0.228E-04    0.316E-03
RMM:  19    -0.102956645043E+03    0.40574E-03    0.11367E-02  7938  -0.808E-04    0.708E-03
RMM:  20    -0.102957047156E+03   -0.40211E-03    0.25165E-02  7395  -0.279E-03    0.362E-03
RMM:  21    -0.102956476283E+03    0.57087E-03    0.13120E-02  7526  -0.120E-03    0.603E-03
RMM:  22    -0.102955420315E+03    0.10560E-02    0.31393E-02  7717  -0.296E-03    0.128E-02
RMM:  23    -0.102953938718E+03    0.14816E-02    0.89997E-02  8104  -0.860E-03    0.118E-02
RMM:  24    -0.102959289690E+03   -0.53510E-02    0.24733E-02  8329  -0.202E-03    0.309E-02
RMM:  25    -0.102966305976E+03   -0.70163E-02   -0.11778E-01  9264   0.132E-02    0.877E-02
RMM:  26    -0.102953503419E+03    0.12803E-01   -0.41270E-01  9701   0.432E-02    0.193E-02
RMM:  27    -0.102967033322E+03   -0.13530E-01   -0.40068E-02  9700   0.801E-03    0.811E-02
RMM:  28    -0.102982204353E+03   -0.15171E-01   -0.10549E+00 10308   0.787E-02    0.118E-01
RMM:  29    -0.103001713205E+03   -0.19509E-01   -0.47333E-01 12032   0.554E-02    0.133E-01
RMM:  30    -0.103025105800E+03   -0.23393E-01   -0.21760E+00 12411   0.158E-01    0.244E-01
RMM:  31    -0.103031807659E+03   -0.67019E-02   -0.35151E+00 12771   0.271E-01    0.224E-01
RMM:  32    -0.103058019145E+03   -0.26211E-01   -0.17667E+00 12595   0.171E-01    0.251E-01
RMM:  33    -0.103090167740E+03   -0.32149E-01   -0.30117E+00 12572   0.247E-01    0.259E-01
RMM:  34    -0.103016679566E+03    0.73488E-01   -0.36252E+00 12635   0.277E-01    0.138E-01
RMM:  35    -0.103057660410E+03   -0.40981E-01   -0.19649E+00 12590   0.146E-01    0.126E-01
RMM:  36    -0.102994085895E+03    0.63575E-01   -0.25781E+00 11033   0.165E-01    0.579E-02
RMM:  37    -0.102977984609E+03    0.16101E-01   -0.47412E-01 10524   0.473E-02    0.635E-02
RMM:  38    -0.102974295123E+03    0.36895E-02   -0.93399E-01 10254   0.689E-02    0.753E-02
RMM:  39    -0.102977373181E+03   -0.30781E-02   -0.13361E+00 10404   0.867E-02    0.978E-02
RMM:  40    -0.103003377437E+03   -0.26004E-01   -0.13484E+00 10809   0.102E-01    0.167E-01
RMM:  41    -0.102981179150E+03    0.22198E-01   -0.31237E+00 12209   0.210E-01    0.116E-01
RMM:  42    -0.103034612841E+03   -0.53434E-01   -0.22343E+00 11364   0.155E-01    0.259E-01
RMM:  43    -0.102982660744E+03    0.51952E-01   -0.46019E+00 11956   0.324E-01    0.151E-01
RMM:  44    -0.103034284764E+03   -0.51624E-01   -0.29221E+00 11876   0.199E-01    0.202E-01
RMM:  45    -0.103054859063E+03   -0.20574E-01   -0.37654E+00 11422   0.258E-01    0.189E-01
RMM:  46    -0.103074601051E+03   -0.19742E-01   -0.33977E+00 12011   0.241E-01    0.216E-01
RMM:  47    -0.103042395709E+03    0.32205E-01   -0.42188E+00 12629   0.276E-01    0.220E-01
RMM:  48    -0.103066132166E+03   -0.23736E-01   -0.34397E+00 12632   0.245E-01    0.195E-01
RMM:  49    -0.103025036307E+03    0.41096E-01   -0.31658E+00 12269   0.227E-01    0.125E-01
RMM:  50    -0.103007913683E+03    0.17123E-01   -0.14278E+00 12074   0.123E-01    0.175E-01
RMM:  51    -0.103035208694E+03   -0.27295E-01   -0.29094E+00 11376   0.203E-01    0.196E-01
RMM:  52    -0.102972652596E+03    0.62556E-01   -0.46382E+00 11951   0.282E-01    0.643E-02
RMM:  53    -0.102990682360E+03   -0.18030E-01   -0.95190E-01 11512   0.663E-02    0.102E-01
RMM:  54    -0.102966457515E+03    0.24225E-01   -0.19273E+00 10412   0.126E-01    0.739E-02
RMM:  55    -0.102964746205E+03    0.17113E-02   -0.14575E+00 10326   0.963E-02    0.102E-01
RMM:  56    -0.102977036888E+03   -0.12291E-01   -0.19692E+00 10189   0.130E-01    0.116E-01
RMM:  57    -0.102974120394E+03    0.29165E-02   -0.19541E+00 11332   0.137E-01    0.997E-02
RMM:  58    -0.102969991477E+03    0.41289E-02   -0.20704E+00 10886   0.135E-01    0.120E-01
RMM:  59    -0.103000932268E+03   -0.30941E-01   -0.21171E+00 11150   0.148E-01    0.174E-01
RMM:  60    -0.102986632220E+03    0.14300E-01   -0.38208E+00 11988   0.244E-01    0.146E-01
RMM:  61    -0.102992936432E+03   -0.63042E-02   -0.32808E+00 11927   0.206E-01    0.168E-01
RMM:  62    -0.102967467207E+03    0.25469E-01   -0.36730E+00 11562   0.235E-01    0.888E-02
RMM:  63    -0.102983271325E+03   -0.15804E-01   -0.18641E+00 10561   0.120E-01    0.119E-01
RMM:  64    -0.102993199977E+03   -0.99287E-02   -0.21871E+00 10279   0.148E-01    0.200E-01
RMM:  65    -0.103022351227E+03   -0.29151E-01   -0.29811E+00 11562   0.225E-01    0.183E-01
RMM:  66    -0.103059668230E+03   -0.37317E-01   -0.27646E+00 12218   0.196E-01    0.136E-01
RMM:  67    -0.103089065384E+03   -0.29397E-01   -0.25603E+00 13125   0.168E-01    0.147E-01
RMM:  68    -0.102985453380E+03    0.10361E+00   -0.30319E+00 11552   0.189E-01    0.148E-01
RMM:  69    -0.102993106689E+03   -0.76533E-02   -0.31436E+00 10695   0.202E-01    0.131E-01
RMM:  70    -0.102990989131E+03    0.21176E-02   -0.23348E+00 10599   0.162E-01    0.140E-01
RMM:  71    -0.103033383022E+03   -0.42394E-01   -0.32489E+00 10486   0.204E-01    0.228E-01
RMM:  72    -0.103097832658E+03   -0.64450E-01   -0.46962E+00 14323   0.309E-01    0.397E-01
RMM:  73    -0.103089068131E+03    0.87645E-02   -0.68286E+00 12322   0.476E-01    0.349E-01
RMM:  74    -0.103000208199E+03    0.88860E-01   -0.60660E+00 13057   0.417E-01    0.147E-01
RMM:  75    -0.103022929437E+03   -0.22721E-01   -0.25510E+00 12807   0.176E-01    0.203E-01
RMM:  76    -0.103011008332E+03    0.11921E-01   -0.33022E+00 11212   0.228E-01    0.116E-01
RMM:  77    -0.103016749888E+03   -0.57416E-02   -0.19368E+00 13073   0.132E-01    0.163E-01
RMM:  78    -0.102995611173E+03    0.21139E-01   -0.33076E+00 12927   0.218E-01    0.145E-01
RMM:  79    -0.103092381816E+03   -0.96771E-01   -0.23517E+00 10858   0.168E-01    0.214E-01
RMM:  80    -0.103022658420E+03    0.69723E-01   -0.47914E+00 11415   0.294E-01
   3 F= -.10302266E+03 E0= -.10302667E+03  d E =-.179797E+01
       N       E                     dE             d eps       ncg     rms          rms(c)
DAV:   1    -0.102714236176E+03    0.37815E+00   -0.12967E+02 14336   0.141E+01    0.687E-01
RMM:   2    -0.103012954962E+03   -0.29872E+00   -0.31084E+00 14378   0.295E+00    0.356E-01
RMM:   3    -0.103055239884E+03   -0.42285E-01   -0.32379E-01 17576   0.107E+00    0.712E-01
RMM:   4    -0.103028939743E+03    0.26300E-01   -0.59875E-03 14867   0.135E-01    0.235E-01
RMM:   5    -0.103029411259E+03   -0.47152E-03   -0.99132E-04 17177   0.615E-02    0.203E-01
RMM:   6    -0.103029225048E+03    0.18621E-03   -0.37375E-04 14574   0.314E-02    0.169E-01
RMM:   7    -0.103028776891E+03    0.44816E-03   -0.10899E-03 14409   0.586E-02    0.703E-02
RMM:   8    -0.103028569518E+03    0.20737E-03   -0.32850E-04 16721   0.296E-02    0.319E-02
RMM:   9    -0.103028542368E+03    0.27150E-04   -0.44361E-05 14790   0.140E-02    0.202E-02
RMM:  10    -0.103028540115E+03    0.22528E-05   -0.31709E-05 14224   0.992E-03    0.104E-02
RMM:  11    -0.103028547627E+03   -0.75120E-05   -0.15360E-05 14695   0.779E-03    0.504E-03
RMM:  12    -0.103028556211E+03   -0.85840E-05    0.28143E-06 12526   0.295E-03    0.306E-03
RMM:  13    -0.103028564803E+03   -0.85917E-05    0.69635E-06 10820   0.244E-03    0.153E-03
RMM:  14    -0.103028571667E+03   -0.68640E-05    0.13549E-05 10207   0.112E-03    0.914E-04
RMM:  15    -0.103028576222E+03   -0.45547E-05    0.23086E-05  9819   0.726E-04    0.563E-04
RMM:  16    -0.103028578180E+03   -0.19580E-05    0.39797E-05  9249   0.618E-04    0.385E-04
RMM:  17    -0.103028576945E+03    0.12344E-05    0.72101E-05  8213   0.461E-04    0.212E-04
RMM:  18    -0.103028572604E+03    0.43417E-05    0.14033E-04  7931   0.431E-04    0.146E-04
RMM:  19    -0.103028573065E+03   -0.46101E-06    0.17330E-04  7239   0.396E-04    0.117E-04
RMM:  20    -0.103028554985E+03    0.18079E-04    0.32502E-04  7218   0.423E-04    0.232E-04
RMM:  21    -0.103028542830E+03    0.12155E-04    0.78616E-04  7065   0.378E-04    0.357E-04
RMM:  22    -0.103028531002E+03    0.11829E-04    0.89352E-04  7044   0.362E-04    0.555E-04
RMM:  23    -0.103028388016E+03    0.14299E-03    0.10708E-03  7064   0.354E-04    0.219E-03
RMM:  24    -0.103028668032E+03   -0.28002E-03    0.58537E-03  7017  -0.181E-04    0.103E-02
RMM:  25    -0.103027988721E+03    0.67931E-03   -0.38576E-02  8068   0.475E-03    0.473E-03
RMM:  26    -0.103027491843E+03    0.49688E-03    0.16239E-02  7405  -0.150E-03    0.984E-03
RMM:  27    -0.103044598271E+03   -0.17106E-01   -0.45387E-02  7602   0.497E-03    0.589E-02
RMM:  28    -0.103027773812E+03    0.16824E-01   -0.21452E-01 10117   0.234E-02    0.609E-03
RMM:  29    -0.103032107889E+03   -0.43341E-02   -0.43010E-02  9687   0.167E-03    0.386E-02
RMM:  30    -0.103029379740E+03    0.27281E-02   -0.33281E-01  9608   0.264E-02    0.266E-02
RMM:  31    -0.103051786745E+03   -0.22407E-01   -0.74903E-02  9903   0.116E-02    0.113E-01
RMM:  32    -0.103063732406E+03   -0.11946E-01   -0.18997E+00 11814   0.131E-01    0.140E-01
RMM:  33    -0.103168053417E+03   -0.10432E+00   -0.21909E+00 11894   0.161E-01    0.308E-01
RMM:  34    -0.103105159544E+03    0.62894E-01   -0.53822E+00 12817   0.376E-01    0.221E-01
RMM:  35    -0.103065909953E+03    0.39250E-01   -0.38353E+00 13239   0.266E-01    0.208E-01
RMM:  36    -0.103115979793E+03   -0.50070E-01   -0.34680E+00 12309   0.241E-01    0.289E-01
RMM:  37    -0.103118564446E+03   -0.25847E-02   -0.49555E+00 13017   0.361E-01    0.233E-01
RMM:  38    -0.103087824041E+03    0.30740E-01   -0.41803E+00 12831   0.296E-01    0.211E-01
RMM:  39    -0.103093576973E+03   -0.57529E-02   -0.41812E+00 12850   0.280E-01    0.239E-01
RMM:  40    -0.103170433791E+03   -0.76857E-01   -0.26929E+00 12646   0.231E-01    0.414E-01
RMM:  41    -0.103079109903E+03    0.91324E-01   -0.84266E+00 12835   0.554E-01    0.160E-01
RMM:  42    -0.103065726103E+03    0.13384E-01   -0.18516E+00 12593   0.152E-01    0.112E-01
RMM:  43    -0.103059831247E+03    0.58949E-02   -0.15728E+00 11945   0.120E-01    0.116E-01
RMM:  44    -0.103052515439E+03    0.73158E-02   -0.23399E+00 10657   0.154E-01    0.119E-01
RMM:  45    -0.103066455330E+03   -0.13940E-01   -0.21645E+00 10337   0.145E-01    0.144E-01
RMM:  46    -0.103021837396E+03    0.44618E-01   -0.25613E+00 10667   0.172E-01    0.101E-02
RMM:  47    -0.103054852158E+03   -0.33015E-01    0.55430E-02 11677  -0.496E-04    0.115E-01
RMM:  48    -0.103078664071E+03   -0.23812E-01   -0.21516E+00 10344   0.145E-01    0.202E-01
RMM:  49    -0.103089133260E+03   -0.10469E-01   -0.39625E+00 11092   0.268E-01    0.203E-01
RMM:  50    -0.103127428128E+03   -0.38295E-01   -0.34217E+00 11438   0.245E-01    0.262E-01
RMM:  51    -0.103146027544E+03   -0.18599E-01   -0.50244E+00 12022   0.343E-01    0.367E-01
RMM:  52    -0.103120436422E+03    0.25591E-01   -0.63128E+00 12745   0.435E-01    0.287E-01
RMM:  53    -0.103132353099E+03   -0.11917E-01   -0.49306E+00 12367   0.349E-01    0.257E-01
RMM:  54    -0.103094770417E+03    0.37583E-01   -0.37446E+00 12338   0.264E-01    0.147E-01
RMM:  55    -0.103060439826E+03    0.34331E-01   -0.25563E+00 12280   0.181E-01    0.108E-01
RMM:  56    -0.103041969782E+03    0.18470E-01   -0.22447E+00 11039   0.142E-01    0.123E-01
RMM:  57    -0.103045140533E+03   -0.31708E-02   -0.23707E+00 10299   0.157E-01    0.988E-02
RMM:  58    -0.103035868925E+03    0.92716E-02   -0.20159E+00 10242   0.131E-01    0.631E-02
RMM:  59    -0.103050198192E+03   -0.14329E-01   -0.11844E+00 10581   0.740E-02    0.822E-02
RMM:  60    -0.103044647020E+03    0.55512E-02   -0.15746E+00 10526   0.100E-01    0.988E-02
RMM:  61    -0.103060904223E+03   -0.16257E-01   -0.19053E+00 10381   0.124E-01    0.111E-01
RMM:  62    -0.103091495570E+03   -0.30591E-01   -0.20296E+00 10635   0.135E-01    0.201E-01
RMM:  63    -0.103083841121E+03    0.76544E-02   -0.26802E+00 11774   0.210E-01    0.237E-01
RMM:  64    -0.103075099910E+03    0.87412E-02   -0.39786E+00 11945   0.273E-01    0.200E-01
RMM:  65    -0.103054377166E+03    0.20723E-01   -0.35800E+00 12178   0.251E-01    0.217E-01
RMM:  66    -0.103212191443E+03   -0.15781E+00   -0.43955E+00 12168   0.284E-01    0.429E-01
RMM:  67    -0.103131763987E+03    0.80427E-01   -0.69328E+00 12419   0.502E-01    0.329E-01
RMM:  68    -0.103093833288E+03    0.37931E-01   -0.60598E+00 12930   0.404E-01    0.215E-01
RMM:  69    -0.103070378927E+03    0.23454E-01   -0.43920E+00 12461   0.287E-01    0.182E-01
RMM:  70    -0.103104649569E+03   -0.34271E-01   -0.36916E+00 11415   0.242E-01    0.180E-01
RMM:  71    -0.103095907975E+03    0.87416E-02   -0.34503E+00 10692   0.234E-01    0.290E-01
RMM:  72    -0.103096445465E+03   -0.53749E-03   -0.56929E+00 12645   0.369E-01    0.178E-01
RMM:  73    -0.103088758586E+03    0.76869E-02   -0.31757E+00 11896   0.220E-01    0.221E-01
RMM:  74    -0.103087202559E+03    0.15560E-02   -0.38797E+00 11671   0.265E-01    0.201E-01
RMM:  75    -0.103051206498E+03    0.35996E-01   -0.38326E+00 11242   0.252E-01    0.121E-01
RMM:  76    -0.103057527050E+03   -0.63206E-02   -0.23450E+00 10927   0.152E-01    0.134E-01
RMM:  77    -0.103056041318E+03    0.14857E-02   -0.29551E+00 11215   0.183E-01    0.165E-01
RMM:  78    -0.103041231392E+03    0.14810E-01   -0.27539E+00 10670   0.187E-01    0.127E-01
RMM:  79    -0.103058510565E+03   -0.17279E-01   -0.26462E+00 11326   0.173E-01    0.145E-01
RMM:  80    -0.103069555463E+03   -0.11045E-01   -0.29838E+00 10817   0.197E-01
   4 F= -.10306956E+03 E0= -.10307069E+03  d E =-.184487E+01
       N       E                     dE             d eps       ncg     rms          rms(c)
DAV:   1    -0.103022911681E+03    0.35599E-01   -0.13355E+02 14336   0.142E+01    0.731E-01
RMM:   2    -0.103374610143E+03   -0.35170E+00   -0.32637E+00 14394   0.298E+00    0.746E-01
RMM:   3    -0.103374003967E+03    0.60618E-03   -0.33589E-01 17540   0.110E+00    0.600E-01
RMM:   4    -0.103353909424E+03    0.20095E-01   -0.82743E-03 14719   0.164E-01    0.285E-01
RMM:   5    -0.103352839320E+03    0.10701E-02   -0.14925E-03 16930   0.690E-02    0.213E-01
RMM:   6    -0.103352500293E+03    0.33903E-03   -0.47776E-04 14737   0.330E-02    0.170E-01
RMM:   7    -0.103352041687E+03    0.45861E-03   -0.14053E-03 14420   0.689E-02    0.587E-02
RMM:   8    -0.103351959985E+03    0.81702E-04   -0.26741E-04 17133   0.300E-02    0.310E-02
RMM:   9    -0.103351938807E+03    0.21178E-04   -0.34084E-05 14393   0.107E-02    0.180E-02
RMM:  10    -0.103351939045E+03   -0.23789E-06   -0.19662E-05 14195   0.821E-03    0.855E-03
RMM:  11    -0.103351950492E+03   -0.11447E-04   -0.93280E-06 14409   0.602E-03    0.390E-03
RMM:  12    -0.103351959064E+03   -0.85717E-05    0.17119E-06 11876   0.255E-03    0.231E-03
RMM:  13    -0.103351967516E+03   -0.84520E-05    0.45221E-06 10509   0.170E-03    0.113E-03
RMM:  14    -0.103351971750E+03   -0.42344E-05    0.87353E-06 10109   0.878E-04    0.709E-04
RMM:  15    -0.103351974256E+03   -0.25063E-05    0.15078E-05  9493   0.595E-04    0.415E-04
RMM:  16    -0.103351974895E+03   -0.63835E-06    0.26728E-05  8203   0.458E-04    0.237E-04
RMM:  17    -0.103351973683E+03    0.12118E-05    0.50782E-05  7337   0.382E-04    0.153E-04
RMM:  18    -0.103351969771E+03    0.39122E-05    0.10956E-04  7487   0.396E-04    0.937E-05
RMM:  19    -0.103351955432E+03    0.14339E-04    0.29929E-04  7057   0.360E-04    0.185E-04
RMM:  20    -0.103351923842E+03    0.31589E-04    0.75335E-04  6817   0.299E-04    0.576E-04
RMM:  21    -0.103351944334E+03   -0.20492E-04    0.11004E-03  6781   0.180E-04    0.502E-04
RMM:  22    -0.103351566007E+03    0.37833E-03    0.64290E-04  6729   0.274E-04    0.354E-03
RMM:  23    -0.103351645660E+03   -0.79654E-04    0.99796E-03  6778  -0.920E-04    0.236E-03
RMM:  24    -0.103351902768E+03   -0.25711E-03    0.76695E-03  6696  -0.513E-04    0.114E-03
RMM:  25    -0.103351613696E+03    0.28907E-03    0.29652E-03  6656   0.696E-05    0.389E-03
RMM:  26    -0.103358406670E+03   -0.67930E-02    0.15521E-02  6647  -0.145E-03    0.403E-02
RMM:  27    -0.103357073173E+03    0.13335E-02   -0.35323E-01  9045   0.251E-02    0.258E-02
RMM:  28    -0.103366181338E+03   -0.91082E-02   -0.25988E-01  9296   0.167E-02    0.297E-02
RMM:  29    -0.103384546468E+03   -0.18365E-01   -0.27231E-01  9320   0.257E-02    0.479E-02
RMM:  30    -0.103387811602E+03   -0.32651E-02   -0.53725E-01  9938   0.445E-02    0.100E-01
RMM:  31    -0.103392204186E+03   -0.43926E-02   -0.11034E+00 11288   0.951E-02    0.112E-01
RMM:  32    -0.103375542696E+03    0.16661E-01   -0.12478E+00 11822   0.104E-01    0.183E-01
RMM:  33    -0.103459003994E+03   -0.83461E-01   -0.31313E+00 12295   0.223E-01    0.251E-01
RMM:  34    -0.103397778630E+03    0.61225E-01   -0.31744E+00 12525   0.265E-01    0.156E-01
RMM:  35    -0.103374516723E+03    0.23262E-01   -0.28589E+00 12535   0.202E-01    0.133E-01
RMM:  36    -0.103387521526E+03   -0.13005E-01   -0.14829E+00 11281   0.133E-01    0.105E-01
RMM:  37    -0.103393188959E+03   -0.56674E-02   -0.12770E+00 11616   0.106E-01    0.959E-02
RMM:  38    -0.103371023554E+03    0.22165E-01   -0.11393E+00 11106   0.979E-02    0.580E-02
RMM:  39    -0.103394288011E+03   -0.23264E-01   -0.87395E-01 10495   0.655E-02    0.184E-01
RMM:  40    -0.103391848618E+03    0.24394E-02   -0.26236E+00 11133   0.203E-01    0.180E-01
RMM:  41    -0.103468284500E+03   -0.76436E-01   -0.29297E+00 11179   0.206E-01    0.249E-01
RMM:  42    -0.103419149824E+03    0.49135E-01   -0.37455E+00 12232   0.281E-01    0.190E-01
RMM:  43    -0.103445093315E+03   -0.25943E-01   -0.32882E+00 12227   0.232E-01    0.203E-01
RMM:  44    -0.103372277166E+03    0.72816E-01   -0.34309E+00 11741   0.229E-01    0.117E-01
RMM:  45    -0.103361145666E+03    0.11132E-01   -0.20210E+00 11299   0.142E-01    0.917E-02
RMM:  46    -0.103364802603E+03   -0.36569E-02   -0.17998E+00 10398   0.120E-01    0.103E-01
RMM:  47    -0.103375850865E+03   -0.11048E-01   -0.21078E+00 10463   0.132E-01    0.141E-01
RMM:  48    -0.103360583096E+03    0.15268E-01   -0.23953E+00 11171   0.169E-01    0.113E-01
RMM:  49    -0.103378312119E+03   -0.17729E-01   -0.18656E+00 10914   0.134E-01    0.115E-01
RMM:  50    -0.103373370661E+03    0.49415E-02   -0.24653E+00 10801   0.151E-01    0.125E-01
RMM:  51    -0.103372418312E+03    0.95235E-03   -0.15831E+00 10459   0.124E-01    0.969E-02
RMM:  52    -0.103424469194E+03   -0.52051E-01   -0.16732E+00 10461   0.117E-01    0.166E-01
RMM:  53    -0.103402572617E+03    0.21897E-01   -0.26254E+00 11591   0.194E-01    0.159E-01
RMM:  54    -0.103399167012E+03    0.34056E-02   -0.25911E+00 11619   0.187E-01    0.120E-01
RMM:  55    -0.103405963522E+03   -0.67965E-02   -0.20353E+00 11369   0.143E-01    0.213E-01
RMM:  56    -0.103424356729E+03   -0.18393E-01   -0.33645E+00 12021   0.246E-01    0.236E-01
RMM:  57    -0.103377129954E+03    0.47227E-01   -0.44845E+00 12337   0.305E-01    0.106E-01
RMM:  58    -0.103392489068E+03   -0.15359E-01   -0.20091E+00 11836   0.135E-01    0.988E-02
RMM:  59    -0.103397379650E+03   -0.48906E-02   -0.18184E+00 10389   0.120E-01    0.196E-01
RMM:  60    -0.103402030561E+03   -0.46509E-02   -0.34253E+00 11193   0.232E-01    0.136E-01
RMM:  61    -0.103414335873E+03   -0.12305E-01   -0.20999E+00 10783   0.155E-01    0.197E-01
RMM:  62    -0.103417813585E+03   -0.34777E-02   -0.37616E+00 10869   0.242E-01    0.170E-01
RMM:  63    -0.103407918043E+03    0.98955E-02   -0.37460E+00 10882   0.239E-01    0.167E-01
RMM:  64    -0.103364176801E+03    0.43741E-01   -0.27504E+00 10959   0.195E-01    0.124E-01
RMM:  65    -0.103384301349E+03   -0.20125E-01   -0.30159E+00 10471   0.184E-01    0.157E-01
RMM:  66    -0.103375536089E+03    0.87653E-02   -0.34464E+00 10512   0.217E-01    0.155E-01
RMM:  67    -0.103391098098E+03   -0.15562E-01   -0.27797E+00 13307   0.195E-01    0.131E-01
RMM:  68    -0.103422917613E+03   -0.31820E-01   -0.28279E+00 10990   0.182E-01    0.192E-01
RMM:  69    -0.103484871697E+03   -0.61954E-01   -0.29728E+00 11076   0.221E-01    0.296E-01
RMM:  70    -0.103382127691E+03    0.10274E+00   -0.57449E+00 12702   0.377E-01    0.137E-01
RMM:  71    -0.103406723423E+03   -0.24596E-01   -0.21385E+00 12929   0.164E-01    0.126E-01
RMM:  72    -0.103371439037E+03    0.35284E-01   -0.29282E+00 14249   0.183E-01    0.126E-01
RMM:  73    -0.103456409424E+03   -0.84970E-01   -0.16243E+00 13515   0.136E-01    0.333E-01
RMM:  74    -0.103429063801E+03    0.27346E-01   -0.61827E+00 12289   0.417E-01    0.234E-01
RMM:  75    -0.103424804896E+03    0.42589E-02   -0.43999E+00 12819   0.302E-01    0.216E-01
RMM:  76    -0.103426594161E+03   -0.17893E-02   -0.46329E+00 12025   0.289E-01    0.219E-01
RMM:  77    -0.103400462232E+03    0.26132E-01   -0.40136E+00 13373   0.274E-01    0.123E-01
RMM:  78    -0.103354785041E+03    0.45677E-01   -0.27993E+00 11985   0.174E-01    0.799E-02
RMM:  79    -0.103436280767E+03   -0.81496E-01   -0.14870E+00 13265   0.104E-01    0.205E-01
RMM:  80    -0.103407650790E+03    0.28630E-01   -0.35752E+00 11095   0.243E-01
   5 F= -.10340765E+03 E0= -.10340903E+03  d E =-.338095E+00
       N       E                     dE             d eps       ncg     rms          rms(c)
DAV:   1    -0.102419262665E+03    0.10170E+01   -0.40433E+02 14336   0.265E+01    0.127E+00
RMM:   2    -0.103486692522E+03   -0.10674E+01   -0.10929E+01 14363   0.531E+00    0.715E-01
RMM:   3    -0.103578629634E+03   -0.91937E-01   -0.10241E+00 17485   0.186E+00    0.773E-01
RMM:   4    -0.103539198355E+03    0.39431E-01   -0.20556E-02 15082   0.266E-01    0.477E-01
RMM:   5    -0.103535969160E+03    0.32292E-02   -0.44314E-03 16990   0.117E-01    0.335E-01
RMM:   6    -0.103536733533E+03   -0.76437E-03   -0.17058E-03 14727   0.707E-02    0.291E-01
RMM:   7    -0.103534634229E+03    0.20993E-02   -0.52066E-03 14399   0.136E-01    0.952E-02
RMM:   8    -0.103534495121E+03    0.13911E-03   -0.86825E-04 17013   0.548E-02    0.643E-02
RMM:   9    -0.103534394833E+03    0.10029E-03   -0.10767E-04 14623   0.208E-02    0.419E-02
RMM:  10    -0.103534383194E+03    0.11639E-04   -0.23223E-04 14419   0.292E-02    0.105E-02
RMM:  11    -0.103534417229E+03   -0.34035E-04   -0.21374E-05 16623   0.104E-02    0.754E-03
RMM:  12    -0.103534436248E+03   -0.19019E-04    0.20384E-05 12711   0.369E-03    0.443E-03
RMM:  13    -0.103534465188E+03   -0.28940E-04    0.36121E-05 12015   0.275E-03    0.222E-03
RMM:  14    -0.103534482532E+03   -0.17344E-04    0.68374E-05 10952   0.199E-03    0.143E-03
RMM:  15    -0.103534490870E+03   -0.83375E-05    0.13097E-04 10739   0.122E-03    0.909E-04
RMM:  16    -0.103534495291E+03   -0.44216E-05    0.27533E-04 10229   0.938E-04    0.501E-04
RMM:  17    -0.103534504966E+03   -0.96746E-05    0.28207E-04  9257   0.598E-04    0.393E-04
RMM:  18    -0.103534489526E+03    0.15440E-04    0.42110E-04  8189   0.417E-04    0.439E-04
RMM:  19    -0.103534471649E+03    0.17876E-04    0.90743E-04  6980   0.250E-04    0.587E-04
RMM:  20    -0.103534447350E+03    0.24299E-04    0.16181E-03  6714   0.159E-04    0.123E-03
RMM:  21    -0.103534468493E+03   -0.21142E-04    0.20637E-03  6769   0.552E-05    0.941E-04
RMM:  22    -0.103534463791E+03    0.47020E-05    0.20819E-03  6723   0.129E-04    0.816E-04
RMM:  23    -0.103533909446E+03    0.55434E-03    0.32950E-03  6740   0.890E-05    0.569E-03
RMM:  24    -0.103533634259E+03    0.27519E-03    0.20909E-02  6903  -0.213E-03    0.527E-03
RMM:  25    -0.103533451895E+03    0.18236E-03    0.18012E-02  6638  -0.187E-03    0.894E-03
RMM:  26    -0.103535282087E+03   -0.18302E-02    0.52347E-02  6951  -0.466E-03    0.338E-02
RMM:  27    -0.103545808672E+03   -0.10527E-01   -0.40823E-01  9253   0.318E-02    0.759E-02
RMM:  28    -0.103552215047E+03   -0.64064E-02   -0.10932E+00 10420   0.750E-02    0.749E-02
RMM:  29    -0.103562149597E+03   -0.99346E-02   -0.67582E-01 10257   0.490E-02    0.806E-02
RMM:  30    -0.103545850015E+03    0.16300E-01   -0.93144E-01 10614   0.695E-02    0.727E-02
RMM:  31    -0.103557925619E+03   -0.12076E-01   -0.75707E-01 10718   0.641E-02    0.157E-01
RMM:  32    -0.103562619615E+03   -0.46940E-02   -0.16251E+00 11899   0.112E-01    0.139E-01
RMM:  33    -0.103563556291E+03   -0.93668E-03   -0.18012E+00 12466   0.129E-01    0.178E-01
RMM:  34    -0.103589949452E+03   -0.26393E-01   -0.15795E+00 12409   0.127E-01    0.236E-01
RMM:  35    -0.103584024629E+03    0.59248E-02   -0.39659E+00 12577   0.270E-01    0.217E-01
RMM:  36    -0.103580988718E+03    0.30359E-02   -0.13479E+00 12469   0.144E-01    0.190E-01
RMM:  37    -0.103561945511E+03    0.19043E-01   -0.14582E+00 12897   0.138E-01    0.142E-01
RMM:  38    -0.103561951646E+03   -0.61346E-05   -0.19260E+00 12023   0.139E-01    0.145E-01
RMM:  39    -0.103579638802E+03   -0.17687E-01   -0.23629E+00 10647   0.164E-01    0.140E-01
RMM:  40    -0.103600135581E+03   -0.20497E-01   -0.17973E+00 11449   0.137E-01    0.199E-01
RMM:  41    -0.103606278711E+03   -0.61431E-02   -0.18267E+00 11777   0.161E-01    0.217E-01
RMM:  42    -0.103599525139E+03    0.67536E-02   -0.29106E+00 11833   0.219E-01    0.188E-01
RMM:  43    -0.103577865070E+03    0.21660E-01   -0.34093E+00 11570   0.223E-01    0.795E-02
RMM:  44    -0.103582390694E+03   -0.45256E-02   -0.14256E+00 10995   0.984E-02    0.171E-01
RMM:  45    -0.103583436494E+03   -0.10458E-02   -0.26020E+00 11068   0.184E-01    0.147E-01
RMM:  46    -0.103589370357E+03   -0.59339E-02   -0.19898E+00 10948   0.150E-01    0.195E-01
RMM:  47    -0.103542983519E+03    0.46387E-01   -0.36880E+00 11821   0.237E-01    0.661E-02
RMM:  48    -0.103564280622E+03   -0.21297E-01   -0.69466E-01 11056   0.619E-02    0.130E-01
RMM:  49    -0.103585821879E+03   -0.21541E-01   -0.21573E+00 10991   0.151E-01    0.153E-01
RMM:  50    -0.103547531831E+03    0.38290E-01   -0.21357E+00 11592   0.162E-01    0.142E-01
RMM:  51    -0.103652381166E+03   -0.10485E+00   -0.18530E+00 10539   0.147E-01    0.207E-01
RMM:  52    -0.103637667373E+03    0.14714E-01   -0.28840E+00 11486   0.217E-01    0.264E-01
RMM:  53    -0.103640051967E+03   -0.23846E-02   -0.40411E+00 12429   0.292E-01    0.289E-01
RMM:  54    -0.103637070153E+03    0.29818E-02   -0.47832E+00 12432   0.330E-01    0.261E-01
RMM:  55    -0.103596218945E+03    0.40851E-01   -0.37715E+00 12714   0.284E-01    0.156E-01
RMM:  56    -0.103565625153E+03    0.30594E-01   -0.25325E+00 11804   0.178E-01    0.123E-01
RMM:  57    -0.103604531465E+03   -0.38906E-01   -0.20773E+00 10630   0.144E-01    0.177E-01
RMM:  58    -0.103533012275E+03    0.71519E-01   -0.33644E+00 11286   0.223E-01    0.353E-02
RMM:  59    -0.103580431856E+03   -0.47420E-01   -0.30400E-01 11386   0.304E-02    0.130E-01
RMM:  60    -0.103569621331E+03    0.10811E-01   -0.21567E+00 10370   0.151E-01    0.205E-01
RMM:  61    -0.103622271395E+03   -0.52650E-01   -0.38977E+00 11357   0.259E-01    0.200E-01
RMM:  62    -0.103653119836E+03   -0.30848E-01   -0.29538E+00 12295   0.221E-01    0.234E-01
RMM:  63    -0.103602901229E+03    0.50219E-01   -0.40845E+00 11326   0.286E-01    0.196E-01
RMM:  64    -0.103538953183E+03    0.63948E-01   -0.28969E+00 12150   0.215E-01    0.794E-02
RMM:  65    -0.103546766874E+03   -0.78137E-02   -0.82772E-01 11318   0.682E-02    0.939E-02
RMM:  66    -0.103527847395E+03    0.18919E-01   -0.13366E+00 10370   0.938E-02    0.112E-02
RMM:  67    -0.103564591377E+03   -0.36744E-01   -0.10617E-01 12508   0.697E-03    0.116E-01
RMM:  68    -0.103606055099E+03   -0.41464E-01   -0.18226E+00 10342   0.134E-01    0.263E-01
RMM:  69    -0.103609869606E+03   -0.38145E-02   -0.45919E+00 11610   0.314E-01    0.236E-01
RMM:  70    -0.103603001849E+03    0.68678E-02   -0.40236E+00 12815   0.277E-01    0.259E-01
RMM:  71    -0.103568326159E+03    0.34676E-01   -0.50944E+00 11751   0.333E-01    0.176E-01
RMM:  72    -0.103592160284E+03   -0.23834E-01   -0.32801E+00 11808   0.220E-01    0.182E-01
RMM:  73    -0.103588086354E+03    0.40739E-02   -0.33957E+00 10493   0.224E-01    0.202E-01
RMM:  74    -0.103545865031E+03    0.42221E-01   -0.42316E+00 10917   0.267E-01    0.979E-02
RMM:  75    -0.103586822961E+03   -0.40958E-01   -0.79227E-01 11267   0.766E-02    0.220E-01
RMM:  76    -0.103554925431E+03    0.31898E-01   -0.41457E+00 10859   0.270E-01    0.897E-02
RMM:  77    -0.103580755507E+03   -0.25830E-01   -0.13538E+00 11471   0.101E-01    0.208E-01
RMM:  78    -0.103631485462E+03   -0.50730E-01   -0.40309E+00 11710   0.258E-01    0.245E-01
RMM:  79    -0.103632589601E+03   -0.11041E-02   -0.36713E+00 11906   0.264E-01    0.274E-01
RMM:  80    -0.103596296212E+03    0.36293E-01   -0.50179E+00 12195   0.337E-01
   6 F= -.10359630E+03 E0= -.10360459E+03  d E =-.526741E+00
       N       E                     dE             d eps       ncg     rms          rms(c)
DAV:   1    -0.103510463251E+03    0.12213E+00   -0.15520E+01 14336   0.455E+00    0.223E-01
RMM:   2    -0.103540375582E+03   -0.29912E-01   -0.31053E-01 14481   0.933E-01    0.116E-01
RMM:   3    -0.103542402459E+03   -0.20269E-02   -0.31448E-02 17436   0.344E-01    0.120E-01
RMM:   4    -0.103541631925E+03    0.77053E-03   -0.62558E-04 15353   0.463E-02    0.768E-02
RMM:   5    -0.103541557160E+03    0.74765E-04   -0.12592E-04 16822   0.184E-02    0.577E-02
RMM:   6    -0.103541669665E+03   -0.11250E-03   -0.53651E-05 14874   0.104E-02    0.565E-02
RMM:   7    -0.103541533128E+03    0.13654E-03   -0.83441E-05 14729   0.132E-02    0.147E-02
RMM:   8    -0.103541520225E+03    0.12903E-04   -0.13227E-05 15318   0.747E-03    0.849E-03
RMM:   9    -0.103541517999E+03    0.22258E-05   -0.14244E-06 11542   0.289E-03    0.484E-03
RMM:  10    -0.103541518236E+03   -0.23687E-06   -0.18195E-06 12202   0.274E-03
   7 F= -.10354152E+03 E0= -.10354602E+03  d E =-.471963E+00
       N       E                     dE             d eps       ncg     rms          rms(c)
DAV:   1    -0.103413904157E+03    0.12761E+00   -0.12885E+02 14336   0.133E+01    0.642E-01
RMM:   2    -0.103718184717E+03   -0.30428E+00   -0.31208E+00 14403   0.274E+00    0.353E-01
RMM:   3    -0.103743819381E+03   -0.25635E-01   -0.31314E-01 17269   0.999E-01    0.458E-01
RMM:   4    -0.103732964524E+03    0.10855E-01   -0.58418E-03 15067   0.133E-01    0.228E-01
RMM:   5    -0.103732509742E+03    0.45478E-03   -0.11700E-03 16179   0.635E-02    0.166E-01
RMM:   6    -0.103734455802E+03   -0.19461E-02   -0.11361E-03 14537   0.562E-02    0.192E-01
RMM:   7    -0.103732442162E+03    0.20136E-02   -0.93550E-04 14802   0.522E-02    0.456E-02
RMM:   8    -0.103732406726E+03    0.35436E-04   -0.16336E-04 15942   0.234E-02    0.321E-02
RMM:   9    -0.103732383668E+03    0.23057E-04   -0.27180E-05 14615   0.116E-02    0.205E-02
RMM:  10    -0.103732387542E+03   -0.38739E-05   -0.60197E-05 14549   0.150E-02    0.692E-03
RMM:  11    -0.103732400282E+03   -0.12739E-04    0.12867E-05 14507   0.510E-03    0.437E-03
RMM:  12    -0.103732411304E+03   -0.11023E-04    0.30662E-05 10948   0.278E-03    0.220E-03
RMM:  13    -0.103732422839E+03   -0.11535E-04    0.50906E-05 10429   0.130E-03    0.130E-03
RMM:  14    -0.103732430554E+03   -0.77152E-05    0.83413E-05 10174   0.970E-04    0.806E-04
RMM:  15    -0.103732431364E+03   -0.80914E-06    0.14017E-04  9449   0.625E-04    0.488E-04
RMM:  16    -0.103732427083E+03    0.42807E-05    0.24573E-04  8742   0.460E-04    0.287E-04
RMM:  17    -0.103732427826E+03   -0.74287E-06    0.29474E-04  7644   0.330E-04    0.211E-04
RMM:  18    -0.103732423854E+03    0.39717E-05    0.35985E-04  7076   0.309E-04    0.143E-04
RMM:  19    -0.103732409203E+03    0.14651E-04    0.57522E-04  7074   0.301E-04    0.326E-04
RMM:  20    -0.103732418072E+03   -0.88691E-05    0.60314E-04  6759   0.237E-04    0.324E-04
RMM:  21    -0.103732382087E+03    0.35985E-04    0.10385E-03  6676   0.242E-04    0.754E-04
RMM:  22    -0.103732355399E+03    0.26688E-04    0.13778E-03  6625   0.969E-05    0.146E-03
RMM:  23    -0.103732441548E+03   -0.86148E-04    0.27211E-03  6553  -0.116E-04    0.294E-04
RMM:  24    -0.103732435038E+03    0.65091E-05    0.37186E-04  6607   0.336E-04    0.228E-04
RMM:  25    -0.103731911965E+03    0.52307E-03    0.17690E-03  6528   0.297E-04    0.545E-03
RMM:  26    -0.103731953446E+03   -0.41481E-04    0.13464E-02  6639  -0.158E-03    0.530E-03
RMM:  27    -0.103732111981E+03   -0.15854E-03    0.15447E-02  6504  -0.170E-03    0.396E-03
RMM:  28    -0.103732463397E+03   -0.35142E-03    0.13057E-02  6441  -0.137E-03    0.170E-02
RMM:  29    -0.103732640843E+03   -0.17745E-03   -0.15610E-01  8898   0.119E-02    0.158E-02
RMM:  30    -0.103756294298E+03   -0.23653E-01   -0.10366E-01  8545   0.830E-03    0.995E-02
RMM:  31    -0.103750739280E+03    0.55550E-02   -0.18776E-01 10612   0.313E-02    0.619E-02
RMM:  32    -0.103770207923E+03   -0.19469E-01   -0.33508E-01 10596   0.289E-02    0.204E-01
RMM:  33    -0.103832128907E+03   -0.61921E-01   -0.11043E+00 12386   0.110E-01    0.324E-01
RMM:  34    -0.103871910523E+03   -0.39782E-01   -0.31111E+00 12893   0.254E-01    0.430E-01
RMM:  35    -0.103863982299E+03    0.79282E-02   -0.50588E+00 14006   0.363E-01    0.476E-01
RMM:  36    -0.103858378657E+03    0.56036E-02   -0.46607E+00 14261   0.385E-01    0.406E-01
RMM:  37    -0.103851059052E+03    0.73196E-02   -0.40190E+00 13676   0.319E-01    0.300E-01
RMM:  38    -0.103804584336E+03    0.46475E-01   -0.33344E+00 13473   0.276E-01    0.257E-01
RMM:  39    -0.103785276136E+03    0.19308E-01   -0.33368E+00 12607   0.266E-01    0.207E-01
RMM:  40    -0.103775835428E+03    0.94407E-02   -0.24410E+00 12858   0.195E-01    0.151E-01
RMM:  41    -0.103806109932E+03   -0.30275E-01   -0.20236E+00 11297   0.156E-01    0.228E-01
RMM:  42    -0.103778083367E+03    0.28027E-01   -0.26213E+00 12495   0.210E-01    0.141E-01
RMM:  43    -0.103790964397E+03   -0.12881E-01   -0.11011E+00 12313   0.108E-01    0.188E-01
RMM:  44    -0.103794730623E+03   -0.37662E-02   -0.31559E+00 12348   0.221E-01    0.202E-01
RMM:  45    -0.103781807605E+03    0.12923E-01   -0.20266E+00 12402   0.172E-01    0.212E-01
RMM:  46    -0.103771951139E+03    0.98565E-02   -0.35298E+00 11726   0.239E-01    0.110E-01
RMM:  47    -0.103766660970E+03    0.52902E-02   -0.14271E+00 11061   0.109E-01    0.146E-01
RMM:  48    -0.103775429457E+03   -0.87685E-02   -0.25613E+00 10454   0.166E-01    0.217E-01
RMM:  49    -0.103793153980E+03   -0.17725E-01   -0.26622E+00 12168   0.208E-01    0.149E-01
RMM:  50    -0.103771251249E+03    0.21903E-01   -0.18867E+00 11661   0.139E-01    0.150E-01
RMM:  51    -0.103759505540E+03    0.11746E-01   -0.21999E+00 10622   0.160E-01    0.157E-01
RMM:  52    -0.103859880005E+03   -0.10037E+00   -0.23957E+00 11614   0.169E-01    0.347E-01
RMM:  53    -0.103771405786E+03    0.88474E-01   -0.54561E+00 12411   0.393E-01    0.148E-01
RMM:  54    -0.103791033534E+03   -0.19628E-01   -0.20999E+00 13199   0.159E-01    0.271E-01
RMM:  55    -0.103773515458E+03    0.17518E-01   -0.38696E+00 11715   0.295E-01    0.118E-01
RMM:  56    -0.103781639798E+03   -0.81243E-02   -0.96494E-01 12506   0.968E-02    0.110E-01
RMM:  57    -0.103785680911E+03   -0.40411E-02   -0.20277E+00 11544   0.136E-01    0.182E-01
RMM:  58    -0.103770823196E+03    0.14858E-01   -0.29286E+00 11436   0.208E-01    0.133E-01
RMM:  59    -0.103751229384E+03    0.19594E-01   -0.19246E+00 11371   0.141E-01    0.125E-01
RMM:  60    -0.103770252697E+03   -0.19023E-01   -0.19105E+00 10584   0.142E-01    0.164E-01
RMM:  61    -0.103754335358E+03    0.15917E-01   -0.27545E+00 10941   0.187E-01    0.129E-01
RMM:  62    -0.103760030598E+03   -0.56952E-02   -0.17184E+00 11060   0.132E-01    0.146E-01
RMM:  63    -0.103818711503E+03   -0.58681E-01   -0.24295E+00 10810   0.172E-01    0.306E-01
RMM:  64    -0.103783915571E+03    0.34796E-01   -0.44716E+00 12080   0.326E-01    0.205E-01
RMM:  65    -0.103821989683E+03   -0.38074E-01   -0.35780E+00 11538   0.242E-01    0.310E-01
RMM:  66    -0.103774860239E+03    0.47129E-01   -0.55044E+00 11125   0.372E-01    0.947E-02
RMM:  67    -0.103746216150E+03    0.28644E-01   -0.10241E+00 12323   0.872E-02    0.952E-02
RMM:  68    -0.103758328483E+03   -0.12112E-01   -0.16622E+00 10602   0.114E-01    0.120E-01
RMM:  69    -0.103752346076E+03    0.59824E-02   -0.22910E+00 10935   0.147E-01    0.138E-01
RMM:  70    -0.103760990640E+03   -0.86446E-02   -0.25995E+00 10690   0.167E-01    0.169E-01
RMM:  71    -0.103756814826E+03    0.41758E-02   -0.20666E+00 11284   0.161E-01    0.148E-01
RMM:  72    -0.103778661487E+03   -0.21847E-01   -0.19439E+00 13371   0.156E-01    0.188E-01
RMM:  73    -0.103746446344E+03    0.32215E-01   -0.34547E+00 11537   0.228E-01    0.129E-01
RMM:  74    -0.103750242920E+03   -0.37966E-02   -0.23753E+00 12584   0.160E-01    0.124E-01
RMM:  75    -0.103764028432E+03   -0.13786E-01   -0.20007E+00 10767   0.142E-01    0.832E-02
RMM:  76    -0.103739357642E+03    0.24671E-01   -0.16900E+00 12280   0.107E-01    0.701E-02
RMM:  77    -0.103754647305E+03   -0.15290E-01   -0.59846E-01 13277   0.551E-02    0.866E-02
RMM:  78    -0.103804722203E+03   -0.50075E-01   -0.13114E+00 10345   0.951E-02    0.198E-01
RMM:  79    -0.103836391495E+03   -0.31669E-01   -0.29464E+00 11633   0.211E-01    0.308E-01
RMM:  80    -0.103840327615E+03   -0.39361E-02   -0.54796E+00 12197   0.371E-01
   8 F= -.10384033E+03 E0= -.10384557E+03  d E =-.298809E+00
       N       E                     dE             d eps       ncg     rms          rms(c)
DAV:   1    -0.103743245077E+03    0.93146E-01   -0.56615E+00 14336   0.223E+00    0.931E-02
RMM:   2    -0.103749488496E+03   -0.62434E-02   -0.63979E-02 14526   0.406E-01    0.546E-02
RMM:   3    -0.103749958486E+03   -0.46999E-03   -0.64324E-03 17472   0.149E-01    0.710E-02
RMM:   4    -0.103749699450E+03    0.25904E-03   -0.14330E-04 14918   0.213E-02    0.307E-02
RMM:   5    -0.103749701052E+03   -0.16020E-05   -0.26638E-05 16270   0.901E-03    0.234E-02
RMM:   6    -0.103749716199E+03   -0.15146E-04   -0.14515E-05 13741   0.545E-03    0.230E-02
RMM:   7    -0.103749694210E+03    0.21988E-04   -0.13847E-05 14140   0.560E-03    0.610E-03
RMM:   8    -0.103749692816E+03    0.13946E-05   -0.18084E-06 12119   0.296E-03    0.332E-03
RMM:   9    -0.103749692461E+03    0.35510E-06   -0.10932E-07 10220   0.160E-03
   9 F= -.10374969E+03 E0= -.10375570E+03  d E =-.208174E+00
       N       E                     dE             d eps       ncg     rms          rms(c)
DAV:   1    -0.103748628567E+03    0.10642E-02   -0.11693E+01 16128   0.384E+00    0.188E-01
RMM:   2    -0.103773664870E+03   -0.25036E-01   -0.25680E-01 14495   0.804E-01    0.111E-01
RMM:   3    -0.103775821345E+03   -0.21565E-02   -0.26191E-02 17302   0.294E-01    0.148E-01
RMM:   4    -0.103774647212E+03    0.11741E-02   -0.54543E-04 15129   0.406E-02    0.616E-02
RMM:   5    -0.103774647076E+03    0.13680E-06   -0.10743E-04 16360   0.184E-02    0.439E-02
RMM:   6    -0.103774753575E+03   -0.10650E-03   -0.78138E-05 14505   0.137E-02    0.459E-02
RMM:   7    -0.103774641629E+03    0.11195E-03   -0.49524E-05 15139   0.112E-02    0.125E-02
RMM:   8    -0.103774636512E+03    0.51170E-05   -0.70306E-06 14016   0.504E-03    0.719E-03
RMM:   9    -0.103774635578E+03    0.93337E-06   -0.12319E-06 11353   0.278E-03
  10 F= -.10377464E+03 E0= -.10378048E+03  d E =-.233117E+00
       N       E                     dE             d eps       ncg     rms          rms(c)
DAV:   1    -0.103676779515E+03    0.97857E-01   -0.47101E+01 14336   0.782E+00    0.384E-01
RMM:   2    -0.103782198397E+03   -0.10542E+00   -0.10778E+00 14446   0.164E+00    0.232E-01
RMM:   3    -0.103791357460E+03   -0.91591E-02   -0.11130E-01 17326   0.611E-01    0.304E-01
RMM:   4    -0.103786231183E+03    0.51263E-02   -0.21959E-03 15023   0.808E-02    0.128E-01
RMM:   5    -0.103786204918E+03    0.26265E-04   -0.49157E-04 16041   0.402E-02    0.915E-02
RMM:   6    -0.103786501347E+03   -0.29643E-03   -0.47404E-04 14568   0.376E-02    0.676E-02
RMM:   7    -0.103786246929E+03    0.25442E-03   -0.16252E-04 16864   0.211E-02    0.323E-02
RMM:   8    -0.103786193224E+03    0.53705E-04   -0.19328E-05 14200   0.704E-03    0.157E-02
RMM:   9    -0.103786192654E+03    0.57036E-06   -0.83057E-06 14313   0.602E-03
  11 F= -.10378619E+03 E0= -.10379116E+03  d E =-.244674E+00
       N       E                     dE             d eps       ncg     rms          rms(c)
DAV:   1    -0.103436392958E+03    0.34980E+00   -0.19525E+02 14336   0.164E+01    0.773E-01
RMM:   2    -0.103916608176E+03   -0.48022E+00   -0.47610E+00 14417   0.336E+00    0.526E-01
RMM:   3    -0.103947297241E+03   -0.30689E-01   -0.47856E-01 17327   0.120E+00    0.517E-01
RMM:   4    -0.103933602349E+03    0.13695E-01   -0.84774E-03 15028   0.166E-01    0.256E-01
RMM:   5    -0.103933846127E+03   -0.24378E-03   -0.41381E-03 15023   0.112E-01    0.142E-01
RMM:   6    -0.103934338403E+03   -0.49228E-03   -0.16737E-03 15569   0.712E-02    0.114E-01
RMM:   7    -0.103933501940E+03    0.83646E-03   -0.35719E-04 16508   0.301E-02    0.481E-02
RMM:   8    -0.103933429848E+03    0.72092E-04   -0.57806E-05 15162   0.155E-02    0.300E-02
RMM:   9    -0.103933425627E+03    0.42205E-05   -0.62848E-05 14560   0.147E-02    0.169E-02
RMM:  10    -0.103933443023E+03   -0.17396E-04   -0.34048E-05 14533   0.115E-02    0.727E-03
RMM:  11    -0.103933463349E+03   -0.20326E-04    0.16538E-05 14055   0.480E-03    0.423E-03
RMM:  12    -0.103933482966E+03   -0.19618E-04    0.34740E-05 11599   0.309E-03    0.212E-03
RMM:  13    -0.103933499864E+03   -0.16898E-04    0.60147E-05 10851   0.140E-03    0.128E-03
RMM:  14    -0.103933508242E+03   -0.83775E-05    0.10458E-04 10287   0.973E-04    0.718E-04
RMM:  15    -0.103933508023E+03    0.21866E-06    0.18948E-04  9538   0.713E-04    0.434E-04
RMM:  16    -0.103933497145E+03    0.10878E-04    0.37007E-04  8664   0.492E-04    0.293E-04
RMM:  17    -0.103933470321E+03    0.26824E-04    0.77320E-04  8082   0.388E-04    0.306E-04
RMM:  18    -0.103933457011E+03    0.13310E-04    0.11423E-03  7136   0.267E-04    0.748E-04
RMM:  19    -0.103933495676E+03   -0.38665E-04    0.95130E-04  6953   0.230E-04    0.442E-04
RMM:  20    -0.103933451619E+03    0.44057E-04    0.10417E-03  7290   0.376E-04    0.788E-04
RMM:  21    -0.103933452610E+03   -0.99086E-06    0.17078E-03  6871   0.179E-04    0.131E-03
RMM:  22    -0.103933306043E+03    0.14657E-03    0.25383E-03  6859   0.140E-04    0.329E-03
RMM:  23    -0.103933379473E+03   -0.73430E-04    0.67162E-03  6885  -0.600E-04    0.201E-03
RMM:  24    -0.103932739077E+03    0.64040E-03    0.63540E-03  6772  -0.249E-04    0.570E-03
RMM:  25    -0.103932516452E+03    0.22263E-03    0.14044E-02  6878  -0.158E-03    0.106E-02
RMM:  26    -0.103932722716E+03   -0.20626E-03    0.28962E-02  7084  -0.388E-03    0.468E-03
RMM:  27    -0.103931666170E+03    0.10565E-02    0.19585E-02  6781  -0.170E-03    0.159E-02
RMM:  28    -0.103933964436E+03   -0.22983E-02    0.74544E-02  7980  -0.825E-03    0.314E-02
RMM:  29    -0.104003064610E+03   -0.69100E-01   -0.17935E-01  9065   0.165E-02    0.166E-01
RMM:  30    -0.103941291793E+03    0.61773E-01   -0.14357E+00 11934   0.109E-01    0.106E-01
RMM:  31    -0.103999905356E+03   -0.58614E-01   -0.56139E-01 12817   0.507E-02    0.229E-01
RMM:  32    -0.103984541175E+03    0.15364E-01   -0.23259E+00 12300   0.187E-01    0.111E-01
RMM:  33    -0.103995238663E+03   -0.10697E-01   -0.15666E+00 12755   0.108E-01    0.282E-01
RMM:  34    -0.103996494764E+03   -0.12561E-02   -0.27483E+00 12539   0.210E-01    0.324E-01
RMM:  35    -0.104034352477E+03   -0.37858E-01   -0.34088E+00 13445   0.236E-01    0.322E-01
RMM:  36    -0.104014985518E+03    0.19367E-01   -0.34507E+00 13529   0.280E-01    0.275E-01
RMM:  37    -0.103951978616E+03    0.63007E-01   -0.38790E+00 13152   0.284E-01    0.796E-02
RMM:  38    -0.103958679338E+03   -0.67007E-02   -0.97994E-01 12684   0.810E-02    0.128E-01
RMM:  39    -0.103936952418E+03    0.21727E-01   -0.23786E+00 11457   0.152E-01    0.849E-02
RMM:  40    -0.103939093674E+03   -0.21413E-02   -0.13379E+00 10772   0.983E-02    0.817E-02
RMM:  41    -0.103959206581E+03   -0.20113E-01   -0.90317E-01 10412   0.702E-02    0.186E-01
RMM:  42    -0.103941511410E+03    0.17695E-01   -0.27953E+00 11892   0.197E-01    0.897E-02
RMM:  43    -0.103940869320E+03    0.64209E-03   -0.11312E+00 11346   0.867E-02    0.662E-02
RMM:  44    -0.103977661776E+03   -0.36792E-01   -0.48947E-01 10526   0.403E-02    0.159E-01
RMM:  45    -0.104028167516E+03   -0.50506E-01   -0.21088E+00 11449   0.158E-01    0.168E-01
RMM:  46    -0.104005591683E+03    0.22576E-01   -0.25362E+00 11893   0.180E-01    0.261E-01
RMM:  47    -0.104102891605E+03   -0.97300E-01   -0.39311E+00 12408   0.276E-01    0.411E-01
RMM:  48    -0.103973095963E+03    0.12980E+00   -0.55662E+00 12843   0.423E-01    0.213E-01
RMM:  49    -0.104041923559E+03   -0.68828E-01   -0.31255E+00 13004   0.222E-01    0.205E-01
RMM:  50    -0.104002328815E+03    0.39595E-01   -0.34844E+00 11398   0.239E-01    0.112E-01
RMM:  51    -0.103967960620E+03    0.34368E-01   -0.18570E+00 12000   0.131E-01    0.203E-01
RMM:  52    -0.103994656506E+03   -0.26696E-01   -0.35070E+00 11463   0.236E-01    0.154E-01
RMM:  53    -0.103978235458E+03    0.16421E-01   -0.16182E+00 11445   0.136E-01    0.159E-01
RMM:  54    -0.103957745534E+03    0.20490E-01   -0.30658E+00 11019   0.196E-01    0.141E-01
RMM:  55    -0.103968616441E+03   -0.10871E-01   -0.19434E+00 11927   0.145E-01    0.156E-01
RMM:  56    -0.103948596524E+03    0.20020E-01   -0.25702E+00 11102   0.176E-01    0.981E-02
RMM:  57    -0.103963062902E+03   -0.14466E-01   -0.14749E+00 10826   0.109E-01    0.118E-01
RMM:  58    -0.103971802034E+03   -0.87391E-02   -0.21114E+00 10920   0.133E-01    0.123E-01
RMM:  59    -0.104004478547E+03   -0.32677E-01   -0.13249E+00 10364   0.113E-01    0.227E-01
RMM:  60    -0.103960632889E+03    0.43846E-01   -0.29180E+00 11295   0.221E-01    0.102E-01
RMM:  61    -0.104066818794E+03   -0.10619E+00   -0.12411E+00 11158   0.102E-01    0.346E-01
RMM:  62    -0.103986020363E+03    0.80798E-01   -0.50942E+00 12220   0.367E-01    0.163E-01
RMM:  63    -0.103991844850E+03   -0.58245E-02   -0.21329E+00 12114   0.168E-01    0.173E-01
RMM:  64    -0.103994015580E+03   -0.21707E-02   -0.30463E+00 10926   0.203E-01    0.134E-01
RMM:  65    -0.104028563234E+03   -0.34548E-01   -0.20668E+00 11598   0.151E-01    0.156E-01
RMM:  66    -0.103952403018E+03    0.76160E-01   -0.30891E+00 10878   0.194E-01    0.773E-02
RMM:  67    -0.103970751593E+03   -0.18349E-01   -0.13623E+00 12029   0.897E-02    0.189E-01
RMM:  68    -0.103985312081E+03   -0.14560E-01   -0.30043E+00 10512   0.208E-01    0.186E-01
RMM:  69    -0.103989127057E+03   -0.38150E-02   -0.26947E+00 11569   0.201E-01    0.242E-01
RMM:  70    -0.103981917342E+03    0.72097E-02   -0.45982E+00 12221   0.298E-01    0.247E-01
RMM:  71    -0.104005858326E+03   -0.23941E-01   -0.37322E+00 12123   0.267E-01    0.207E-01
RMM:  72    -0.103950443425E+03    0.55415E-01   -0.32707E+00 13942   0.229E-01    0.143E-01
RMM:  73    -0.103963044215E+03   -0.12601E-01   -0.27201E+00 12605   0.172E-01    0.155E-01
RMM:  74    -0.103947396879E+03    0.15647E-01   -0.32852E+00 10637   0.207E-01    0.679E-02
RMM:  75    -0.103976875399E+03   -0.29479E-01   -0.10542E+00 13326   0.733E-02    0.232E-01
RMM:  76    -0.104030019022E+03   -0.53144E-01   -0.43206E+00 10901   0.290E-01    0.255E-01
RMM:  77    -0.103954147135E+03    0.75872E-01   -0.45410E+00 13196   0.301E-01    0.136E-01
RMM:  78    -0.103941733182E+03    0.12414E-01   -0.21488E+00 12812   0.147E-01    0.763E-02
RMM:  79    -0.103950758749E+03   -0.90256E-02   -0.13048E+00 12239   0.911E-02    0.137E-01
RMM:  80    -0.104062388866E+03   -0.11163E+00   -0.20068E+00 10359   0.147E-01
  12 F= -.10406239E+03 E0= -.10406555E+03  d E =-.276196E+00
       N       E                     dE             d eps       ncg     rms          rms(c)
DAV:   1    -0.103690978542E+03    0.25978E+00   -0.11450E+02 14336   0.124E+01    0.587E-01
RMM:   2    -0.103955480526E+03   -0.26450E+00   -0.26009E+00 14413   0.254E+00    0.415E-01
RMM:   3    -0.103967050700E+03   -0.11570E-01   -0.26766E-01 17564   0.925E-01    0.365E-01
RMM:   4    -0.103960565671E+03    0.64850E-02   -0.50915E-03 15081   0.130E-01    0.186E-01
RMM:   5    -0.103961902022E+03   -0.13364E-02   -0.19292E-03 15190   0.748E-02    0.169E-01
RMM:   6    -0.103960755583E+03    0.11464E-02   -0.87961E-04 15350   0.498E-02    0.655E-02
RMM:   7    -0.103960525864E+03    0.22972E-03   -0.21872E-04 16158   0.258E-02    0.298E-02
RMM:   8    -0.103960499291E+03    0.26574E-04   -0.33043E-05 15075   0.113E-02    0.182E-02
RMM:   9    -0.103960497170E+03    0.21213E-05   -0.22432E-05 14368   0.885E-03    0.965E-03
RMM:  10    -0.103960503791E+03   -0.66218E-05   -0.11963E-05 14493   0.704E-03    0.470E-03
RMM:  11    -0.103960511422E+03   -0.76301E-05    0.65927E-06 12050   0.289E-03    0.254E-03
RMM:  12    -0.103960518396E+03   -0.69740E-05    0.13067E-05 10340   0.157E-03    0.135E-03
RMM:  13    -0.103960524458E+03   -0.60626E-05    0.21725E-05 10024   0.103E-03    0.879E-04
RMM:  14    -0.103960528313E+03   -0.38552E-05    0.36027E-05  9677   0.801E-04    0.444E-04
RMM:  15    -0.103960528561E+03   -0.24771E-06    0.61268E-05  9048   0.536E-04    0.251E-04
RMM:  16    -0.103960525963E+03    0.25975E-05    0.10812E-04  8117   0.423E-04    0.161E-04
RMM:  17    -0.103960519407E+03    0.65567E-05    0.20366E-04  7380   0.374E-04    0.122E-04
RMM:  18    -0.103960504258E+03    0.15149E-04    0.42251E-04  7224   0.343E-04    0.222E-04
RMM:  19    -0.103960485898E+03    0.18360E-04    0.74626E-04  6807   0.282E-04    0.454E-04
RMM:  20    -0.103960486907E+03   -0.10085E-05    0.89998E-04  6831   0.228E-04    0.759E-04
RMM:  21    -0.103960491833E+03   -0.49264E-05    0.98908E-04  6873   0.217E-04    0.756E-04
RMM:  22    -0.103960514125E+03   -0.22292E-04    0.80692E-04  6870   0.220E-04    0.309E-04
RMM:  23    -0.103960474191E+03    0.39933E-04    0.99502E-04  6730   0.302E-04    0.114E-03
RMM:  24    -0.103960318463E+03    0.15573E-03    0.31181E-03  6710   0.760E-05    0.312E-03
RMM:  25    -0.103960173467E+03    0.14500E-03    0.84513E-03  6677  -0.748E-04    0.369E-03
RMM:  26    -0.103959494818E+03    0.67865E-03    0.12024E-02  6676  -0.113E-03    0.732E-03
RMM:  27    -0.103959092249E+03    0.40257E-03    0.43136E-02  6784  -0.400E-03    0.603E-03
RMM:  28    -0.103976784635E+03   -0.17692E-01    0.33064E-02  6617  -0.280E-03    0.627E-02
RMM:  29    -0.103959069605E+03    0.17715E-01   -0.51290E-01  9997   0.476E-02    0.229E-02
RMM:  30    -0.103975068883E+03   -0.15999E-01   -0.25433E-01  9376   0.202E-02    0.658E-02
RMM:  31    -0.103997731376E+03   -0.22662E-01   -0.68824E-01  9733   0.557E-02    0.146E-01
RMM:  32    -0.103984416051E+03    0.13315E-01   -0.18030E+00 11379   0.142E-01    0.126E-01
RMM:  33    -0.104012301772E+03   -0.27886E-01   -0.18392E+00 11953   0.136E-01    0.221E-01
RMM:  34    -0.104020423042E+03   -0.81213E-02   -0.31818E+00 12375   0.236E-01    0.134E-01
RMM:  35    -0.103992826104E+03    0.27597E-01   -0.20154E+00 12497   0.153E-01    0.195E-01
RMM:  36    -0.104036070934E+03   -0.43245E-01   -0.27745E+00 10868   0.214E-01    0.250E-01
RMM:  37    -0.104038533805E+03   -0.24629E-02   -0.35287E+00 12337   0.265E-01    0.245E-01
RMM:  38    -0.104005441943E+03    0.33092E-01   -0.35317E+00 12621   0.258E-01    0.169E-01
RMM:  39    -0.104021909670E+03   -0.16468E-01   -0.24962E+00 12132   0.187E-01    0.228E-01
RMM:  40    -0.103994774610E+03    0.27135E-01   -0.36518E+00 12292   0.257E-01    0.145E-01
RMM:  41    -0.103987587806E+03    0.71868E-02   -0.15539E+00 12244   0.135E-01    0.170E-01
RMM:  42    -0.103979145016E+03    0.84428E-02   -0.17407E+00 10539   0.147E-01    0.985E-02
RMM:  43    -0.103958610112E+03    0.20535E-01   -0.88876E-01 10778   0.791E-02    0.306E-02
RMM:  44    -0.103973665452E+03   -0.15055E-01   -0.26003E-01 10481   0.263E-02    0.739E-02
RMM:  45    -0.103999278674E+03   -0.25613E-01   -0.91133E-01 10295   0.713E-02    0.170E-01
RMM:  46    -0.103986767427E+03    0.12511E-01   -0.26519E+00 11266   0.187E-01    0.143E-01
RMM:  47    -0.104044077569E+03   -0.57310E-01   -0.15303E+00 10969   0.133E-01    0.272E-01
RMM:  48    -0.104004525223E+03    0.39552E-01   -0.47944E+00 12446   0.331E-01    0.115E-01
RMM:  49    -0.103988719360E+03    0.15806E-01   -0.15884E+00 11825   0.124E-01    0.106E-01
RMM:  50    -0.103963684989E+03    0.25034E-01   -0.15204E+00 10418   0.113E-01    0.678E-02
RMM:  51    -0.104005686470E+03   -0.42001E-01   -0.12558E+00 10573   0.817E-02    0.149E-01
RMM:  52    -0.103971235514E+03    0.34451E-01   -0.26231E+00 10595   0.175E-01    0.789E-02
RMM:  53    -0.103995767746E+03   -0.24532E-01   -0.10836E+00 10746   0.797E-02    0.187E-01
RMM:  54    -0.103985312559E+03    0.10455E-01   -0.25996E+00 11471   0.201E-01    0.926E-02
RMM:  55    -0.104024723792E+03   -0.39411E-01   -0.12481E+00 10765   0.960E-02    0.165E-01
RMM:  56    -0.103987225763E+03    0.37498E-01   -0.28697E+00 10515   0.189E-01    0.152E-01
RMM:  57    -0.104005051257E+03   -0.17825E-01   -0.22572E+00 10467   0.161E-01    0.218E-01
RMM:  58    -0.103981421925E+03    0.23629E-01   -0.34715E+00 12175   0.242E-01    0.138E-01
RMM:  59    -0.103988465309E+03   -0.70434E-02   -0.17082E+00 11222   0.135E-01    0.186E-01
RMM:  60    -0.104002274744E+03   -0.13809E-01   -0.31433E+00 10493   0.213E-01    0.160E-01
RMM:  61    -0.104006700415E+03   -0.44257E-02   -0.26688E+00 10723   0.188E-01    0.171E-01
RMM:  62    -0.104020084396E+03   -0.13384E-01   -0.23503E+00 11921   0.177E-01    0.133E-01
RMM:  63    -0.103972395122E+03    0.47689E-01   -0.15003E+00 11965   0.126E-01    0.101E-01
RMM:  64    -0.104002645040E+03   -0.30250E-01   -0.15720E+00 11775   0.108E-01    0.153E-01
RMM:  65    -0.103989463697E+03    0.13181E-01   -0.21725E+00 11315   0.161E-01    0.165E-01
RMM:  66    -0.103999102598E+03   -0.96389E-02   -0.22887E+00 11114   0.171E-01    0.148E-01
RMM:  67    -0.104026021696E+03   -0.26919E-01   -0.22823E+00 11860   0.164E-01    0.224E-01
RMM:  68    -0.104036745209E+03   -0.10724E-01   -0.45000E+00 12325   0.290E-01    0.221E-01
RMM:  69    -0.104037997148E+03   -0.12519E-02   -0.37619E+00 12004   0.264E-01    0.226E-01
RMM:  70    -0.104014995955E+03    0.23001E-01   -0.18207E+00 12143   0.177E-01    0.149E-01
RMM:  71    -0.104019450423E+03   -0.44545E-02   -0.23863E+00 11086   0.169E-01    0.241E-01
RMM:  72    -0.104000858163E+03    0.18592E-01   -0.36766E+00 13191   0.266E-01    0.162E-01
RMM:  73    -0.103986557760E+03    0.14300E-01   -0.22910E+00 11196   0.171E-01    0.118E-01
RMM:  74    -0.103965634161E+03    0.20924E-01   -0.18961E+00 10657   0.130E-01    0.903E-02
RMM:  75    -0.104012329807E+03   -0.46696E-01   -0.16503E+00 11046   0.111E-01    0.178E-01
RMM:  76    -0.104001427040E+03    0.10903E-01   -0.28294E+00 10835   0.196E-01    0.205E-01
RMM:  77    -0.103959836528E+03    0.41591E-01   -0.31702E+00 12629   0.222E-01    0.423E-02
RMM:  78    -0.103988211661E+03   -0.28375E-01   -0.73818E-01 13046   0.513E-02    0.157E-01
RMM:  79    -0.104030643904E+03   -0.42432E-01   -0.29517E+00 10697   0.193E-01    0.147E-01
RMM:  80    -0.104025356585E+03    0.52873E-02   -0.24833E+00 10665   0.168E-01
  13 F= -.10402536E+03 E0= -.10402844E+03  d E =-.239164E+00
       N       E                     dE             d eps       ncg     rms          rms(c)
DAV:   1    -0.103691834446E+03    0.33881E+00   -0.16074E+02 14336   0.152E+01    0.740E-01
RMM:   2    -0.104072057664E+03   -0.38022E+00   -0.39039E+00 14414   0.313E+00    0.328E-01
RMM:   3    -0.104092975540E+03   -0.20918E-01   -0.38688E-01 17678   0.115E+00    0.337E-01
RMM:   4    -0.104091328242E+03    0.16473E-02   -0.64051E-03 15526   0.149E-01    0.245E-01
RMM:   5    -0.104091074843E+03    0.25340E-03   -0.18308E-03 15567   0.783E-02    0.174E-01
RMM:   6    -0.104091337369E+03   -0.26253E-03   -0.21089E-03 14638   0.806E-02    0.110E-01
RMM:   7    -0.104090645733E+03    0.69164E-03   -0.66657E-04 17082   0.423E-02    0.561E-02
RMM:   8    -0.104090481950E+03    0.16378E-03   -0.58472E-05 14954   0.150E-02    0.341E-02
RMM:   9    -0.104090453046E+03    0.28904E-04   -0.74993E-05 14460   0.164E-02    0.144E-02
RMM:  10    -0.104090466341E+03   -0.13295E-04   -0.33975E-05 14491   0.120E-02    0.667E-03
RMM:  11    -0.104090480311E+03   -0.13970E-04    0.21089E-05 14093   0.488E-03    0.344E-03
RMM:  12    -0.104090490966E+03   -0.10655E-04    0.41545E-05 11364   0.290E-03    0.183E-03
RMM:  13    -0.104090496942E+03   -0.59761E-05    0.71999E-05 10411   0.117E-03    0.141E-03
RMM:  14    -0.104090499262E+03   -0.23199E-05    0.12418E-04 10238   0.100E-03    0.672E-04
RMM:  15    -0.104090495139E+03    0.41226E-05    0.22605E-04  9357   0.556E-04    0.410E-04
RMM:  16    -0.104090485529E+03    0.96099E-05    0.39750E-04  8605   0.405E-04    0.262E-04
RMM:  17    -0.104090482279E+03    0.32499E-05    0.52701E-04  7766   0.315E-04    0.244E-04
RMM:  18    -0.104090460046E+03    0.22233E-04    0.86173E-04  7093   0.271E-04    0.458E-04
RMM:  19    -0.104090430435E+03    0.29612E-04    0.14956E-03  6898   0.191E-04    0.892E-04
RMM:  20    -0.104090483682E+03   -0.53247E-04    0.14466E-03  6806   0.880E-05    0.648E-04
RMM:  21    -0.104090168152E+03    0.31553E-03    0.11874E-03  6781   0.250E-04    0.110E-03
RMM:  22    -0.104090266100E+03   -0.97949E-04    0.39366E-03  6768   0.915E-05    0.324E-03
RMM:  23    -0.104090204019E+03    0.62081E-04    0.63358E-03  6793  -0.519E-04    0.371E-03
RMM:  24    -0.104089850460E+03    0.35356E-03    0.88607E-03  6772  -0.950E-04    0.460E-03
RMM:  25    -0.104090577696E+03   -0.72724E-03    0.17286E-02  6796  -0.184E-03    0.110E-02
RMM:  26    -0.104101438512E+03   -0.10861E-01    0.17086E-02  8320   0.175E-04    0.584E-02
RMM:  27    -0.104089652739E+03    0.11786E-01   -0.49987E-01  9800   0.407E-02    0.243E-02
RMM:  28    -0.104094022503E+03   -0.43698E-02   -0.95879E-02  9211   0.118E-02    0.376E-02
RMM:  29    -0.104101372265E+03   -0.73498E-02   -0.31681E-01  9318   0.268E-02    0.575E-02
RMM:  30    -0.104135195239E+03   -0.33823E-01   -0.83825E-01 10035   0.554E-02    0.115E-01
RMM:  31    -0.104134578847E+03    0.61639E-03   -0.15594E+00 11576   0.114E-01    0.135E-01
RMM:  32    -0.104208678634E+03   -0.74100E-01   -0.23937E+00 12159   0.162E-01    0.269E-01
RMM:  33    -0.104224421272E+03   -0.15743E-01   -0.47250E+00 12478   0.331E-01    0.292E-01
RMM:  34    -0.104120818879E+03    0.10360E+00   -0.46384E+00 12766   0.334E-01    0.139E-01
RMM:  35    -0.104130693249E+03   -0.98744E-02   -0.24498E+00 12399   0.174E-01    0.117E-01
RMM:  36    -0.104115193531E+03    0.15500E-01   -0.17599E+00 10550   0.130E-01    0.107E-01
RMM:  37    -0.104104658932E+03    0.10535E-01   -0.10146E+00 11081   0.957E-02    0.908E-02
RMM:  38    -0.104099693615E+03    0.49653E-02   -0.15133E+00 10489   0.107E-01    0.119E-01
RMM:  39    -0.104141948318E+03   -0.42255E-01   -0.14921E+00 10357   0.115E-01    0.152E-01
RMM:  40    -0.104088715436E+03    0.53233E-01   -0.15944E+00 11872   0.136E-01    0.526E-02
RMM:  41    -0.104119279858E+03   -0.30564E-01   -0.21204E-01 11291   0.317E-02    0.149E-01
RMM:  42    -0.104114106709E+03    0.51731E-02   -0.19433E+00 10382   0.153E-01    0.128E-01
RMM:  43    -0.104117442054E+03   -0.33353E-02   -0.18097E+00 10545   0.134E-01    0.823E-02
RMM:  44    -0.104175953991E+03   -0.58512E-01   -0.15430E+00 10496   0.102E-01    0.178E-01
RMM:  45    -0.104120179543E+03    0.55774E-01   -0.23792E+00 11208   0.180E-01    0.142E-01
RMM:  46    -0.104166210189E+03   -0.46031E-01   -0.21623E+00 10790   0.156E-01    0.251E-01
RMM:  47    -0.104121331341E+03    0.44879E-01   -0.41160E+00 11577   0.285E-01    0.129E-01
RMM:  48    -0.104092139798E+03    0.29192E-01   -0.24763E+00 11706   0.162E-01    0.638E-02
RMM:  49    -0.104129448795E+03   -0.37309E-01   -0.10928E+00 10598   0.736E-02    0.174E-01
RMM:  50    -0.104121247847E+03    0.82009E-02   -0.23841E+00 10970   0.177E-01    0.152E-01
RMM:  51    -0.104123503371E+03   -0.22555E-02   -0.23717E+00 10994   0.168E-01    0.127E-01
RMM:  52    -0.104146821889E+03   -0.23319E-01   -0.19180E+00 11237   0.143E-01    0.287E-01
RMM:  53    -0.104134855840E+03    0.11966E-01   -0.48997E+00 11822   0.338E-01    0.184E-01
RMM:  54    -0.104094556674E+03    0.40299E-01   -0.30636E+00 11675   0.213E-01    0.828E-02
RMM:  55    -0.104135822432E+03   -0.41266E-01   -0.11457E+00 10732   0.892E-02    0.154E-01
RMM:  56    -0.104140910049E+03   -0.50876E-02   -0.28364E+00 10353   0.185E-01    0.142E-01
RMM:  57    -0.104092135284E+03    0.48775E-01   -0.22845E+00 10685   0.162E-01    0.644E-02
RMM:  58    -0.104093964123E+03   -0.18288E-02   -0.75220E-01 10654   0.627E-02    0.538E-02
RMM:  59    -0.104097986294E+03   -0.40222E-02   -0.95090E-01 10402   0.638E-02    0.866E-02
RMM:  60    -0.104160487696E+03   -0.62501E-01   -0.87117E-01 10693   0.778E-02    0.204E-01
RMM:  61    -0.104126270078E+03    0.34218E-01   -0.33227E+00 11701   0.227E-01    0.140E-01
RMM:  62    -0.104160346994E+03   -0.34077E-01   -0.19885E+00 10737   0.150E-01    0.250E-01
RMM:  63    -0.104156768044E+03    0.35789E-02   -0.33375E+00 10859   0.253E-01    0.242E-01
RMM:  64    -0.104151192672E+03    0.55754E-02   -0.35355E+00 11504   0.257E-01    0.246E-01
RMM:  65    -0.104098668009E+03    0.52525E-01   -0.37534E+00 11709   0.275E-01    0.114E-01
RMM:  66    -0.104152268124E+03   -0.53600E-01   -0.17216E+00 11476   0.119E-01    0.208E-01
RMM:  67    -0.104121061815E+03    0.31206E-01   -0.36743E+00 13609   0.247E-01    0.124E-01
RMM:  68    -0.104112678422E+03    0.83834E-02   -0.21315E+00 11041   0.140E-01    0.152E-01
RMM:  69    -0.104142391933E+03   -0.29714E-01   -0.20716E+00 10475   0.155E-01    0.229E-01
RMM:  70    -0.104103134168E+03    0.39258E-01   -0.36836E+00 11453   0.260E-01    0.140E-01
RMM:  71    -0.104126533280E+03   -0.23399E-01   -0.21365E+00 12847   0.155E-01    0.189E-01
RMM:  72    -0.104137858697E+03   -0.11325E-01   -0.27786E+00 12384   0.201E-01    0.172E-01
RMM:  73    -0.104193595504E+03   -0.55737E-01   -0.23157E+00 11202   0.174E-01    0.257E-01
RMM:  74    -0.104113989978E+03    0.79606E-01   -0.35696E+00 12023   0.259E-01    0.113E-01
RMM:  75    -0.104135197847E+03   -0.21208E-01   -0.14449E+00 12253   0.112E-01    0.203E-01
RMM:  76    -0.104142013108E+03   -0.68153E-02   -0.33461E+00 10818   0.231E-01    0.213E-01
RMM:  77    -0.104185754872E+03   -0.43742E-01   -0.36344E+00 11770   0.251E-01    0.268E-01
RMM:  78    -0.104139929161E+03    0.45826E-01   -0.49106E+00 12086   0.324E-01    0.189E-01
RMM:  79    -0.104095727211E+03    0.44202E-01   -0.32877E+00 12692   0.227E-01    0.926E-02
RMM:  80    -0.104111514704E+03   -0.15787E-01   -0.18199E+00 11950   0.119E-01
  14 F= -.10411151E+03 E0= -.10411605E+03  d E =-.861581E-01
       N       E                     dE             d eps       ncg     rms          rms(c)
DAV:   1    -0.103929887132E+03    0.16584E+00   -0.73293E+01 14336   0.993E+00    0.499E-01
[...]
RMM:  59    -0.104146164740E+03    0.25027E-01   -0.32304E+00 11238   0.200E-01    0.201E-01
RMM:  60    -0.104167367948E+03   -0.21203E-01   -0.25008E+00 10793   0.202E-01    0.277E-01
RMM:  61    -0.104142787533E+03    0.24580E-01   -0.39788E+00 11854   0.298E-01    0.178E-01
RMM:  62    -0.104122148487E+03    0.20639E-01   -0.29622E+00 12238   0.205E-01    0.153E-01
RMM:  63    -0.104129747606E+03   -0.75991E-02   -0.18829E+00 10700   0.150E-01    0.176E-01
RMM:  64    -0.104158444635E+03   -0.28697E-01   -0.28342E+00 10478   0.197E-01    0.168E-01
RMM:  65    -0.104110241481E+03    0.48203E-01   -0.24857E+00 10630   0.180E-01    0.128E-01
RMM:  66    -0.104124596363E+03   -0.14355E-01   -0.17398E+00 10310   0.130E-01    0.151E-01
RMM:  67    -0.104115830109E+03    0.87663E-02   -0.20896E+00 10677   0.151E-01    0.144E-01
RMM:  68    -0.104134139375E+03   -0.18309E-01   -0.22899E+00 11022   0.158E-01    0.158E-01
RMM:  69    -0.104131863887E+03    0.22755E-02   -0.26138E+00 10856   0.181E-01    0.109E-01
RMM:  70    -0.104127268816E+03    0.45951E-02   -0.15438E+00 10423   0.112E-01    0.116E-01
RMM:  71    -0.104107800715E+03    0.19468E-01   -0.17732E+00 10514   0.123E-01    0.108E-01
RMM:  72    -0.104120552547E+03   -0.12752E-01   -0.12396E+00 13624   0.105E-01    0.133E-01
RMM:  73    -0.104154320875E+03   -0.33768E-01   -0.20707E+00 11551   0.153E-01    0.236E-01
RMM:  74    -0.104164153167E+03   -0.98323E-02   -0.36164E+00 11528   0.254E-01    0.200E-01
RMM:  75    -0.104167004086E+03   -0.28509E-02   -0.36214E+00 11237   0.242E-01    0.242E-01
RMM:  76    -0.104190027037E+03   -0.23023E-01   -0.31374E+00 11839   0.249E-01    0.275E-01
RMM:  77    -0.104118760446E+03    0.71267E-01   -0.50512E+00 13310   0.345E-01    0.134E-01
RMM:  78    -0.104146065233E+03   -0.27305E-01   -0.19231E+00 12759   0.139E-01    0.166E-01
RMM:  79    -0.104120304775E+03    0.25760E-01   -0.33219E+00 10711   0.210E-01    0.137E-01
RMM:  80    -0.104149409967E+03   -0.29105E-01   -0.21306E+00 12096   0.150E-01
  15 F= -.10414941E+03 E0= -.10415603E+03  d E =-.124053E+00
       N       E                     dE             d eps       ncg     rms          rms(c)
DAV:   1    -0.104071833605E+03    0.48471E-01   -0.59768E+01 16384   0.866E+00    0.422E-01
RMM:   2    -0.104150140105E+03   -0.78307E-01   -0.83430E-01 14392   0.137E+00    0.224E-01
RMM:   3    -0.104153203546E+03   -0.30634E-02   -0.75358E-02 17485   0.507E-01    0.236E-01
RMM:   4    -0.104151014879E+03    0.21887E-02   -0.22246E-03 15350   0.733E-02    0.120E-01
RMM:   5    -0.104150714377E+03    0.30050E-03   -0.48145E-04 16259   0.371E-02    0.753E-02
RMM:   6    -0.104150657451E+03    0.56926E-04   -0.26233E-04 14975   0.253E-02    0.274E-02
RMM:   7    -0.104150658517E+03   -0.10659E-05   -0.46928E-05 15821   0.122E-02    0.194E-02
RMM:   8    -0.104150630391E+03    0.28126E-04   -0.68205E-06 13641   0.471E-03    0.899E-03
RMM:   9    -0.104150633731E+03   -0.33407E-05   -0.71057E-07 12965   0.324E-03    0.529E-03
RMM:  10    -0.104150644074E+03   -0.10343E-04    0.14386E-06 12478   0.295E-03    0.260E-03
RMM:  11    -0.104150652838E+03   -0.87638E-05    0.79479E-06 10961   0.187E-03    0.157E-03
RMM:  12    -0.104150661664E+03   -0.88255E-05    0.13377E-05 10261   0.110E-03    0.103E-03
RMM:  13    -0.104150669427E+03   -0.77632E-05    0.21525E-05 10054   0.938E-04    0.677E-04
RMM:  14    -0.104150673111E+03   -0.36838E-05    0.34827E-05  8876   0.689E-04    0.375E-04
RMM:  15    -0.104150673297E+03   -0.18662E-06    0.56837E-05  8319   0.589E-04    0.210E-04
RMM:  16    -0.104150670957E+03    0.23398E-05    0.94300E-05  7604   0.520E-04    0.147E-04
RMM:  17    -0.104150666034E+03    0.49239E-05    0.16217E-04  7326   0.514E-04    0.944E-05
RMM:  18    -0.104150658736E+03    0.72975E-05    0.27123E-04  7261   0.488E-04    0.990E-05
RMM:  19    -0.104150652178E+03    0.65578E-05    0.40075E-04  6941   0.433E-04    0.288E-04
RMM:  20    -0.104150640302E+03    0.11876E-04    0.62318E-04  6827   0.404E-04    0.454E-04
RMM:  21    -0.104150576334E+03    0.63968E-04    0.15549E-03  6787   0.346E-04    0.125E-03
RMM:  22    -0.104150608272E+03   -0.31938E-04    0.23353E-03  6737   0.737E-05    0.111E-03
RMM:  23    -0.104150519317E+03    0.88955E-04    0.25399E-03  6710   0.180E-04    0.248E-03
RMM:  24    -0.104150556900E+03   -0.37583E-04    0.55137E-03  6666  -0.293E-04    0.186E-03
RMM:  25    -0.104150475907E+03    0.80993E-04    0.38055E-03  6595  -0.151E-04    0.216E-03
RMM:  26    -0.104149758623E+03    0.71728E-03    0.13214E-02  6558  -0.779E-04    0.646E-03
RMM:  27    -0.104152715022E+03   -0.29564E-02    0.34669E-02  6652  -0.335E-03    0.290E-02
RMM:  28    -0.104174191514E+03   -0.21476E-01   -0.12465E-01  9418   0.158E-02    0.588E-02
RMM:  29    -0.104198077111E+03   -0.23886E-01   -0.76556E-01  9935   0.574E-02    0.112E-01
RMM:  30    -0.104245177507E+03   -0.47100E-01   -0.16942E+00 10971   0.113E-01    0.291E-01
RMM:  31    -0.104303109513E+03   -0.57932E-01   -0.37566E+00 12686   0.258E-01    0.359E-01
RMM:  32    -0.104307971656E+03   -0.48621E-02   -0.45794E+00 13018   0.326E-01    0.336E-01
RMM:  33    -0.104229514641E+03    0.78457E-01   -0.43146E+00 13004   0.319E-01    0.265E-01
RMM:  34    -0.104303374829E+03   -0.73860E-01   -0.38886E+00 12611   0.282E-01    0.394E-01
RMM:  35    -0.104308470555E+03   -0.50957E-02   -0.63992E+00 12706   0.455E-01    0.267E-01
RMM:  36    -0.104390653298E+03   -0.82183E-01   -0.37736E+00 12752   0.280E-01    0.428E-01
RMM:  37    -0.104257467183E+03    0.13319E+00   -0.70666E+00 12796   0.494E-01    0.266E-01
RMM:  38    -0.104178234697E+03    0.79232E-01   -0.41346E+00 12480   0.293E-01    0.148E-01
RMM:  39    -0.104260105090E+03   -0.81870E-01   -0.17937E+00 11990   0.142E-01    0.194E-01
RMM:  40    -0.104231220451E+03    0.28885E-01   -0.27704E+00 10971   0.200E-01    0.156E-01
RMM:  41    -0.104225147676E+03    0.60728E-02   -0.22250E+00 11292   0.163E-01    0.136E-01
RMM:  42    -0.104197472030E+03    0.27676E-01   -0.22135E+00 10915   0.153E-01    0.199E-01
RMM:  43    -0.104195118263E+03    0.23538E-02   -0.34686E+00 10955   0.235E-01    0.193E-01
RMM:  44    -0.104164655687E+03    0.30463E-01   -0.34636E+00 11229   0.228E-01    0.904E-02
RMM:  45    -0.104185970157E+03   -0.21314E-01   -0.10883E+00 10860   0.821E-02    0.152E-01
RMM:  46    -0.104173300732E+03    0.12669E-01   -0.18951E+00 10607   0.143E-01    0.102E-01
RMM:  47    -0.104225389186E+03   -0.52088E-01   -0.11148E+00 10781   0.914E-02    0.234E-01
RMM:  48    -0.104276657265E+03   -0.51268E-01   -0.28786E+00 12089   0.230E-01    0.363E-01
RMM:  49    -0.104267953753E+03    0.87035E-02   -0.47963E+00 12530   0.367E-01    0.260E-01
RMM:  50    -0.104235963795E+03    0.31990E-01   -0.45743E+00 12812   0.308E-01    0.224E-01
RMM:  51    -0.104199733866E+03    0.36230E-01   -0.37096E+00 11861   0.257E-01    0.152E-01
RMM:  52    -0.104209464159E+03   -0.97303E-02   -0.26439E+00 11662   0.177E-01    0.175E-01
RMM:  53    -0.104211820082E+03   -0.23559E-02   -0.25060E+00 10602   0.186E-01    0.187E-01
RMM:  54    -0.104194813973E+03    0.17006E-01   -0.28270E+00 12063   0.200E-01    0.152E-01
RMM:  55    -0.104194960020E+03   -0.14605E-03   -0.22231E+00 11242   0.158E-01    0.186E-01
RMM:  56    -0.104165690604E+03    0.29269E-01   -0.25541E+00 11255   0.184E-01    0.503E-02
RMM:  57    -0.104200010485E+03   -0.34320E-01   -0.29836E-01 11512   0.331E-02    0.160E-01
RMM:  58    -0.104168997456E+03    0.31013E-01   -0.28004E+00 10799   0.187E-01    0.122E-01
RMM:  59    -0.104175256749E+03   -0.62593E-02   -0.24055E+00 10501   0.154E-01    0.118E-01
RMM:  60    -0.104168427239E+03    0.68295E-02   -0.17042E+00 10303   0.120E-01    0.117E-01
RMM:  61    -0.104201253953E+03   -0.32827E-01   -0.13541E+00 10677   0.109E-01    0.133E-01
RMM:  62    -0.104176419966E+03    0.24834E-01   -0.25763E+00 11091   0.167E-01    0.602E-02
RMM:  63    -0.104162613955E+03    0.13806E-01   -0.10961E+00 11345   0.723E-02    0.135E-01
RMM:  64    -0.104218480558E+03   -0.55867E-01   -0.21657E+00 10313   0.154E-01    0.306E-01
RMM:  65    -0.104300708687E+03   -0.82228E-01   -0.39071E+00 11829   0.311E-01    0.363E-01
RMM:  66    -0.104251235129E+03    0.49474E-01   -0.52887E+00 12945   0.386E-01    0.249E-01
RMM:  67    -0.104220976126E+03    0.30259E-01   -0.35292E+00 12767   0.260E-01    0.190E-01
RMM:  68    -0.104160142674E+03    0.60833E-01   -0.34731E+00 11906   0.224E-01    0.102E-01
RMM:  69    -0.104171165543E+03   -0.11023E-01   -0.15231E+00 11103   0.110E-01    0.748E-02
RMM:  70    -0.104164859754E+03    0.63058E-02   -0.13545E+00 10405   0.881E-02    0.116E-01
RMM:  71    -0.104264564805E+03   -0.99705E-01   -0.14922E+00 10544   0.118E-01    0.237E-01
RMM:  72    -0.104185802361E+03    0.78762E-01   -0.39191E+00 13722   0.270E-01    0.206E-01
RMM:  73    -0.104216637273E+03   -0.30835E-01   -0.31714E+00 12260   0.224E-01    0.218E-01
RMM:  74    -0.104174806903E+03    0.41830E-01   -0.34119E+00 11576   0.238E-01    0.164E-01
RMM:  75    -0.104160905019E+03    0.13902E-01   -0.22078E+00 11263   0.170E-01    0.106E-01
RMM:  76    -0.104189851422E+03   -0.28946E-01   -0.19825E+00 10474   0.132E-01    0.151E-01
RMM:  77    -0.104206055333E+03   -0.16204E-01   -0.25672E+00 12962   0.177E-01    0.218E-01
RMM:  78    -0.104184985603E+03    0.21070E-01   -0.40988E+00 11607   0.267E-01    0.212E-01
RMM:  79    -0.104173618125E+03    0.11367E-01   -0.35856E+00 11426   0.242E-01    0.108E-01
RMM:  80    -0.104206256497E+03   -0.32638E-01   -0.12106E+00 13038   0.974E-02
  16 F= -.10420626E+03 E0= -.10421695E+03  d E =-.568465E-01
       N       E                     dE             d eps       ncg     rms          rms(c)
DAV:   1    -0.104149199617E+03    0.24419E-01   -0.21221E+00 14336   0.971E-01    0.460E-02
RMM:   2    -0.104150336135E+03   -0.11365E-02   -0.11905E-02 14502   0.168E-01    0.229E-02
RMM:   3    -0.104150395129E+03   -0.58994E-04   -0.11913E-03 17373   0.634E-02    0.258E-02
RMM:   4    -0.104150365233E+03    0.29897E-04   -0.28200E-05 14500   0.943E-03    0.134E-02
RMM:   5    -0.104150362797E+03    0.24361E-05   -0.50923E-06 14241   0.401E-03    0.876E-03
RMM:   6    -0.104150363933E+03   -0.11362E-05   -0.38192E-06 12756   0.318E-03    0.496E-03
RMM:   7    -0.104150362480E+03    0.14531E-05   -0.10658E-06 10528   0.208E-03    0.228E-03
RMM:   8    -0.104150362019E+03    0.46054E-06   -0.33578E-07 10212   0.151E-03
  17 F= -.10415036E+03 E0= -.10415761E+03  d E =-.952052E-03
       N       E                     dE             d eps       ncg     rms          rms(c)
DAV:   1    -0.104121692062E+03    0.28670E-01   -0.22392E+01 14336   0.537E+00    0.327E-01
RMM:   2    -0.104174177391E+03   -0.52485E-01   -0.53114E-01 14463   0.115E+00    0.195E-01
RMM:   3    -0.104174877616E+03   -0.70023E-03   -0.51657E-02 17319   0.425E-01    0.168E-01
RMM:   4    -0.104173320866E+03    0.15567E-02   -0.12688E-03 14870   0.622E-02    0.852E-02
RMM:   5    -0.104173508453E+03   -0.18759E-03   -0.30059E-04 15598   0.305E-02    0.775E-02
RMM:   6    -0.104173310844E+03    0.19761E-03   -0.19223E-04 15147   0.218E-02    0.382E-02
RMM:   7    -0.104173267871E+03    0.42973E-04   -0.87114E-05 15690   0.140E-02    0.111E-02
RMM:   8    -0.104173266369E+03    0.15019E-05   -0.90236E-06 14102   0.589E-03    0.681E-03
RMM:   9    -0.104173268617E+03   -0.22479E-05   -0.41011E-06 12829   0.376E-03    0.384E-03
RMM:  10    -0.104173271197E+03   -0.25801E-05    0.44189E-07 10992   0.229E-03    0.198E-03
RMM:  11    -0.104173274779E+03   -0.35814E-05    0.23912E-06 10239   0.148E-03    0.102E-03
RMM:  12    -0.104173277858E+03   -0.30794E-05    0.42405E-06 10176   0.999E-04    0.639E-04
RMM:  13    -0.104173280765E+03   -0.29072E-05    0.69038E-06  9815   0.836E-04    0.430E-04
RMM:  14    -0.104173282228E+03   -0.14630E-05    0.11127E-05  8591   0.669E-04    0.272E-04
RMM:  15    -0.104173282467E+03   -0.23832E-06    0.17841E-05  8243   0.603E-04    0.149E-04
RMM:  16    -0.104173281889E+03    0.57749E-06    0.28662E-05  7612   0.525E-04    0.947E-05
RMM:  17    -0.104173280546E+03    0.13430E-05    0.46609E-05  7078   0.491E-04    0.539E-05
RMM:  18    -0.104173278171E+03    0.23750E-05    0.77477E-05  7073   0.478E-04    0.462E-05
RMM:  19    -0.104173273919E+03    0.42520E-05    0.13329E-04  6767   0.439E-04    0.761E-05
RMM:  20    -0.104173265887E+03    0.80321E-05    0.24189E-04  6713   0.416E-04    0.202E-04
RMM:  21    -0.104173267935E+03   -0.20478E-05    0.26779E-04  6682   0.377E-04    0.262E-04
RMM:  22    -0.104173245952E+03    0.21983E-04    0.53796E-04  6606   0.367E-04    0.587E-04
RMM:  23    -0.104173222674E+03    0.23278E-04    0.97231E-04  6559   0.273E-04    0.869E-04
RMM:  24    -0.104173233655E+03   -0.10981E-04    0.11656E-03  6455   0.148E-04    0.700E-04
RMM:  25    -0.104173255797E+03   -0.22143E-04    0.88208E-04  6364   0.159E-04    0.585E-04
RMM:  26    -0.104173213704E+03    0.42094E-04    0.12346E-03  6144   0.199E-04    0.128E-03
RMM:  27    -0.104173090542E+03    0.12316E-03    0.28311E-03  6078   0.115E-05    0.295E-03
RMM:  28    -0.104173168371E+03   -0.77829E-04    0.49774E-03  6183  -0.590E-04    0.203E-03
RMM:  29    -0.104172770409E+03    0.39796E-03    0.61840E-03  6048  -0.332E-04    0.729E-03
RMM:  30    -0.104173125071E+03   -0.35466E-03    0.18250E-02  6237  -0.236E-03    0.214E-03
RMM:  31    -0.104172571240E+03    0.55383E-03    0.77030E-03  5922  -0.522E-04    0.900E-03
RMM:  32    -0.104171312122E+03    0.12591E-02    0.28814E-02  5774  -0.321E-03    0.181E-02
RMM:  33    -0.104184123601E+03   -0.12811E-01    0.96808E-02  7699  -0.104E-02    0.841E-02
RMM:  34    -0.104186041521E+03   -0.19179E-02   -0.86949E-01 10023   0.704E-02    0.390E-02
RMM:  35    -0.104206170527E+03   -0.20129E-01   -0.39567E-01  9947   0.300E-02    0.160E-01
RMM:  36    -0.104223082130E+03   -0.16912E-01   -0.13817E+00 12587   0.109E-01    0.172E-01
RMM:  37    -0.104272877518E+03   -0.49795E-01   -0.12630E+00 12911   0.110E-01    0.278E-01
RMM:  38    -0.104263307713E+03    0.95698E-02   -0.23402E+00 12976   0.183E-01    0.226E-01
RMM:  39    -0.104293347165E+03   -0.30039E-01   -0.15636E+00 13541   0.116E-01    0.431E-01
RMM:  40    -0.104293077491E+03    0.26967E-03   -0.47629E+00 13407   0.363E-01    0.322E-01
RMM:  41    -0.104279206434E+03    0.13871E-01   -0.43206E+00 13381   0.312E-01    0.377E-01
RMM:  42    -0.104219096577E+03    0.60110E-01   -0.38904E+00 12928   0.322E-01    0.166E-01
RMM:  43    -0.104203892175E+03    0.15204E-01   -0.25395E+00 12988   0.177E-01    0.117E-01
RMM:  44    -0.104190242625E+03    0.13650E-01   -0.19013E+00 11388   0.134E-01    0.335E-02
RMM:  45    -0.104275753651E+03   -0.85511E-01   -0.76338E-01 10748   0.452E-02    0.219E-01
RMM:  46    -0.104233175720E+03    0.42578E-01   -0.24377E+00 11754   0.199E-01    0.142E-01
RMM:  47    -0.104242988676E+03   -0.98130E-02   -0.15976E+00 12424   0.126E-01    0.176E-01
RMM:  48    -0.104206032249E+03    0.36956E-01   -0.25373E+00 11261   0.179E-01    0.117E-01
RMM:  49    -0.104214619101E+03   -0.85869E-02   -0.17573E+00 11707   0.128E-01    0.168E-01
RMM:  50    -0.104203173675E+03    0.11445E-01   -0.24455E+00 10525   0.176E-01    0.202E-01
RMM:  51    -0.104242114384E+03   -0.38941E-01   -0.24364E+00 11330   0.194E-01    0.213E-01
RMM:  52    -0.104283283304E+03   -0.41169E-01   -0.27428E+00 12293   0.214E-01    0.209E-01
RMM:  53    -0.104248731866E+03    0.34551E-01   -0.24247E+00 11967   0.193E-01    0.321E-01
RMM:  54    -0.104252686631E+03   -0.39548E-02   -0.54359E+00 12532   0.366E-01    0.225E-01
RMM:  55    -0.104262644504E+03   -0.99579E-02   -0.34026E+00 12074   0.251E-01    0.203E-01
RMM:  56    -0.104272965680E+03   -0.10321E-01   -0.31262E+00 11018   0.222E-01    0.250E-01
RMM:  57    -0.104253889396E+03    0.19076E-01   -0.29145E+00 11197   0.233E-01    0.227E-01
RMM:  58    -0.104249226222E+03    0.46632E-02   -0.29503E+00 11509   0.229E-01    0.240E-01
RMM:  59    -0.104327945101E+03   -0.78719E-01   -0.28987E+00 11821   0.234E-01    0.303E-01
RMM:  60    -0.104288032386E+03    0.39913E-01   -0.41387E+00 12205   0.310E-01    0.261E-01
RMM:  61    -0.104255615008E+03    0.32417E-01   -0.43659E+00 12284   0.291E-01    0.263E-01
RMM:  62    -0.104212019744E+03    0.43595E-01   -0.44918E+00 12072   0.303E-01    0.203E-01
RMM:  63    -0.104232291934E+03   -0.20272E-01   -0.25452E+00 11617   0.192E-01    0.196E-01
RMM:  64    -0.104213739633E+03    0.18552E-01   -0.31263E+00 11264   0.217E-01    0.119E-01
RMM:  65    -0.104346347872E+03   -0.13261E+00   -0.19201E+00 10898   0.131E-01    0.297E-01
RMM:  66    -0.104271416879E+03    0.74931E-01   -0.37206E+00 12227   0.288E-01    0.216E-01
RMM:  67    -0.104241349377E+03    0.30068E-01   -0.41008E+00 12781   0.264E-01    0.194E-01
RMM:  68    -0.104246590004E+03   -0.52406E-02   -0.35386E+00 11378   0.228E-01    0.187E-01
RMM:  69    -0.104208220041E+03    0.38370E-01   -0.26883E+00 10709   0.196E-01    0.129E-01
RMM:  70    -0.104186930079E+03    0.21290E-01   -0.20807E+00 10721   0.145E-01    0.100E-01
RMM:  71    -0.104179426721E+03    0.75034E-02   -0.16251E+00 10565   0.112E-01    0.112E-01
RMM:  72    -0.104205596140E+03   -0.26169E-01   -0.17988E+00 12817   0.125E-01    0.163E-01
RMM:  73    -0.104240417554E+03   -0.34821E-01   -0.17611E+00 11024   0.149E-01    0.236E-01
RMM:  74    -0.104236292674E+03    0.41249E-02   -0.33896E+00 12191   0.249E-01    0.211E-01
RMM:  75    -0.104221272088E+03    0.15021E-01   -0.41514E+00 12226   0.265E-01    0.153E-01
RMM:  76    -0.104198509147E+03    0.22763E-01   -0.27231E+00 11472   0.179E-01    0.166E-01
RMM:  77    -0.104263023098E+03   -0.64514E-01   -0.25753E+00 13904   0.184E-01    0.286E-01
RMM:  78    -0.104234591984E+03    0.28431E-01   -0.36275E+00 12150   0.286E-01    0.220E-01
RMM:  79    -0.104311825305E+03   -0.77233E-01   -0.29018E+00 12789   0.221E-01    0.321E-01
RMM:  80    -0.104225858871E+03    0.85966E-01   -0.51555E+00 12356   0.362E-01
  18 F= -.10422586E+03 E0= -.10423304E+03  d E =-.754969E-01
       N       E                     dE             d eps       ncg     rms          rms(c)
DAV:   1    -0.104172495404E+03    0.13933E+00   -0.27112E+00 14336   0.884E-01    0.367E-02
RMM:   2    -0.104173153075E+03   -0.65767E-03   -0.66307E-03 14474   0.130E-01    0.209E-02
RMM:   3    -0.104173156287E+03   -0.32127E-05   -0.61346E-04 17371   0.479E-02    0.188E-02
RMM:   4    -0.104173134671E+03    0.21616E-04   -0.16998E-05 14418   0.734E-03    0.931E-03
RMM:   5    -0.104173133289E+03    0.13823E-05   -0.45458E-06 13129   0.344E-03    0.511E-03
RMM:   6    -0.104173133077E+03    0.21168E-06   -0.16571E-06 11110   0.258E-03
  19 F= -.10417313E+03 E0= -.10418026E+03  d E =-.227711E-01
       N       E                     dE             d eps       ncg     rms          rms(c)
DAV:   1    -0.104173722287E+03   -0.58900E-03   -0.90518E+00 14336   0.348E+00    0.219E-01
RMM:   2    -0.104194609847E+03   -0.20888E-01   -0.22277E-01 14476   0.744E-01    0.927E-02
RMM:   3    -0.104194800371E+03   -0.19052E-03   -0.20680E-02 17438   0.283E-01    0.827E-02
RMM:   4    -0.104194629521E+03    0.17085E-03   -0.48969E-04 15628   0.403E-02    0.596E-02
RMM:   5    -0.104194587817E+03    0.41704E-04   -0.11991E-04 15684   0.188E-02    0.341E-02
RMM:   6    -0.104194637490E+03   -0.49673E-04   -0.78355E-05 15011   0.130E-02    0.254E-02
RMM:   7    -0.104194582695E+03    0.54795E-04   -0.16264E-05 15250   0.686E-03    0.835E-03
RMM:   8    -0.104194580826E+03    0.18691E-05   -0.15137E-06 12069   0.278E-03    0.461E-03
RMM:   9    -0.104194582369E+03   -0.15431E-05   -0.19026E-06 11964   0.285E-03    0.198E-03
RMM:  10    -0.104194583385E+03   -0.10163E-05    0.15765E-06 10336   0.151E-03    0.135E-03
RMM:  11    -0.104194584293E+03   -0.90793E-06    0.31365E-06  9979   0.112E-03
  20 F= -.10419458E+03 E0= -.10420172E+03  d E =-.214512E-01
