Tetradymite Slab                        
           1
     3.854579    0.000000   -2.225442
     0.000000   31.937661    0.000000
     0.000000    0.000000   17.803536
   Bi   Te
  12  18
Direct configuration=     1
   0.66666700  0.26914537  0.04166662
   0.66666700  0.06418863  0.04166662
   0.00000000  0.60247837  0.20833338
   0.00000000  0.39752163  0.20833338
   0.33333300  0.93581137  0.12500012
   0.33333300  0.73085463  0.12500012
   0.66666700  0.26914537  0.29166662
   0.66666700  0.06418863  0.29166662
   0.00000000  0.60247837  0.45833338
   0.00000000  0.39752163  0.45833338
   0.33333300  0.93581137  0.37500012
   0.33333300  0.73085463  0.37500012
   0.33333300  0.11815279  0.12500012
   0.00000000  0.00000000  0.20833338
   0.00000000  0.21518021  0.20833338
   0.66666700  0.45148679  0.04166662
   0.33333300  0.33333300  0.12500012
   0.33333300  0.54851321  0.12500012
   0.00000000  0.78481979  0.20833338
   0.66666700  0.66666700  0.04166662
   0.66666700  0.88184721  0.04166662
   0.33333300  0.11815279  0.37500012
   0.00000000  0.00000000  0.45833338
   0.00000000  0.21518021  0.45833338
   0.66666700  0.45148679  0.29166662
   0.33333300  0.33333300  0.37500012
   0.33333300  0.54851321  0.37500012
   0.00000000  0.78481979  0.45833338
   0.66666700  0.66666700  0.29166662
   0.66666700  0.88184721  0.29166662
Direct configuration=     2
   0.67526417  0.26963500  0.04596521
   0.66666700  0.06418863  0.04166662
  -0.00808367  0.60246932  0.20429154
  -0.00505754  0.39830338  0.20580461
   0.33185078  0.93386222  0.12425901
   0.33180306  0.72959176  0.12423516
   0.66666700  0.26914537  0.29166662
   0.66666700  0.06418863  0.29166662
  -0.00670043  0.60186368  0.45498316
  -0.00869270  0.39703562  0.45398703
   0.33485456  0.93708739  0.37576090
   0.33457569  0.73280140  0.37562147
   0.32782682  0.11733094  0.12224704
  -0.00172229  0.00044099  0.20747223
  -0.00499424  0.21550106  0.20583625
   0.67123452  0.45134729  0.04395039
   0.33333300  0.33333300  0.12500012
   0.33494651  0.54852724  0.12580688
   0.00252562  0.78493362  0.20959618
   0.67097329  0.66674245  0.04381977
   0.66879103  0.88274918  0.04272864
   0.33333300  0.11815279  0.37500012
   0.00000000  0.00000000  0.45833338
  -0.00451202  0.21530679  0.45607737
   0.67178326  0.45117389  0.29422476
   0.33886598  0.33422532  0.37776661
   0.33888382  0.54931410  0.37777553
  -0.00197094  0.78394011  0.45734790
   0.66845276  0.66624622  0.29255950
   0.66416660  0.88173801  0.29041643
Direct configuration=     3
   0.70105568  0.27110387  0.05886097
   0.66666700  0.06418863  0.04166662
  -0.03233468  0.60244216  0.19216603
  -0.02023016  0.40064863  0.19821830
   0.32740411  0.92801476  0.12203568
   0.32721326  0.72580317  0.12194025
   0.66666700  0.26914537  0.29166662
   0.66666700  0.06418863  0.29166662
  -0.02680171  0.60001960  0.44493252
  -0.03477078  0.39557760  0.44094798
   0.33941922  0.94091547  0.37804324
   0.33830376  0.73864170  0.37748551
   0.31130830  0.11486538  0.11398777
  -0.00688914  0.00176395  0.20488880
  -0.01997697  0.21646361  0.19834489
   0.68493709  0.45092878  0.05080167
   0.33333300  0.33333300  0.12500012
   0.33978705  0.54856934  0.12822715
   0.01010247  0.78527512  0.21338461
   0.68389215  0.66696879  0.05027920
   0.67516310  0.88545507  0.04591468
   0.33333300  0.11815279  0.37500012
   0.00000000  0.00000000  0.45833338
  -0.01804806  0.21568654  0.44930934
   0.68713204  0.45023519  0.30189915
   0.35546491  0.33690229  0.38606608
   0.35553628  0.55171677  0.38610176
  -0.00788377  0.78130108  0.45439149
   0.67381004  0.66498389  0.29523814
   0.65666542  0.88141041  0.28666583
Direct configuration=     4
   0.69446226  0.27072836  0.05556425
   0.66666700  0.06418863  0.04166662
  -0.02613508  0.60244911  0.19526584
  -0.01635138  0.40004908  0.20015768
   0.32854087  0.92950962  0.12260406
   0.32838661  0.72677169  0.12252693
   0.66666700  0.26914537  0.29166662
   0.66666700  0.06418863  0.29166662
  -0.02166295  0.60049103  0.44750190
  -0.02810410  0.39595033  0.44428132
   0.33825230  0.93993685  0.37745977
   0.33735071  0.73714867  0.37700898
   0.31553115  0.11549568  0.11609920
  -0.00556827  0.00142574  0.20554924
  -0.01614674  0.21621754  0.20026001
   0.68143412  0.45103577  0.04905019
   0.33333300  0.33333300  0.12500012
   0.33854960  0.54855858  0.12760842
   0.00816550  0.78518782  0.21241613
   0.68058953  0.66691093  0.04862789
   0.67353413  0.88476333  0.04510019
   0.33333300  0.11815279  0.37500012
   0.00000000  0.00000000  0.45833338
  -0.01458767  0.21558946  0.45103954
   0.68320823  0.45047516  0.29993724
   0.35122151  0.33621794  0.38394438
   0.35127919  0.55110254  0.38397322
  -0.00637220  0.78197573  0.45514728
   0.67244049  0.66530659  0.29455337
   0.65858304  0.88149416  0.28762465
Direct configuration=     5
   0.69786665  0.27257437  0.05726645
   0.66666700  0.06418863  0.04166662
  -0.03118345  0.60268720  0.19274165
  -0.02056294  0.40124913  0.19805191
   0.33199795  0.92928996  0.12433260
   0.33000817  0.72583354  0.12333771
   0.66666700  0.26914537  0.29166662
   0.66666700  0.06418863  0.29166662
  -0.02477760  0.60176035  0.44594457
  -0.03152413  0.39467433  0.44257131
   0.33745052  0.94143482  0.37705888
   0.33382351  0.73725774  0.37524538
   0.31050296  0.11494674  0.11358510
  -0.00849871  0.00178746  0.20408402
  -0.01497533  0.21590727  0.20084571
   0.68497312  0.45114928  0.05081969
   0.33333300  0.33333300  0.12500012
   0.33858296  0.54799633  0.12762510
   0.00772533  0.78491678  0.21219604
   0.68341860  0.66693210  0.05004243
   0.66924836  0.88400066  0.04295730
   0.33333300  0.11815279  0.37500012
   0.00000000  0.00000000  0.45833338
  -0.02200860  0.21594949  0.44732907
   0.68271566  0.45105243  0.29969096
   0.35792962  0.33638776  0.38729844
   0.35121137  0.55046155  0.38393931
  -0.00199303  0.78281693  0.45733686
   0.67430720  0.66483515  0.29548672
   0.65920566  0.88170044  0.28793595
Direct configuration=     6
   0.70372102  0.27574888  0.06019364
   0.66666700  0.06418863  0.04166662
  -0.03986490  0.60309665  0.18840092
  -0.02780536  0.40331281  0.19443069
   0.33794294  0.92891220  0.12730510
   0.33279670  0.72422024  0.12473198
   0.66666700  0.26914537  0.29166662
   0.66666700  0.06418863  0.29166662
  -0.03013373  0.60394316  0.44326651
  -0.03740539  0.39248005  0.43963068
   0.33607173  0.94401081  0.37636949
   0.32775794  0.73744530  0.37221260
   0.30185621  0.11400276  0.10926173
  -0.01353806  0.00240948  0.20156435
  -0.01296092  0.21537372  0.20185292
   0.69105899  0.45134449  0.05386262
   0.33333300  0.33333300  0.12500012
   0.33864033  0.54702945  0.12765379
   0.00696838  0.78445068  0.21181756
   0.68828362  0.66696851  0.05247493
   0.66187832  0.88268912  0.03927228
   0.33333300  0.11815279  0.37500012
   0.00000000  0.00000000  0.45833338
  -0.03477006  0.21656861  0.44094835
   0.68186862  0.45204515  0.29926743
   0.36946527  0.33667980  0.39306626
   0.35109475  0.54935927  0.38388100
   0.00553763  0.78426352  0.46110219
   0.67751730  0.66402442  0.29709177
   0.66027634  0.88205517  0.28847130
Direct configuration=     7
   0.70260970  0.27514627  0.05963798
   0.66666700  0.06418863  0.04166662
  -0.03821692  0.60301893  0.18922491
  -0.02643055  0.40292107  0.19511810
   0.33681442  0.92898391  0.12674084
   0.33226736  0.72452649  0.12446731
   0.66666700  0.26914537  0.29166662
   0.66666700  0.06418863  0.29166662
  -0.02911699  0.60352880  0.44377488
  -0.03628897  0.39289658  0.44018889
   0.33633346  0.94352182  0.37650036
   0.32890935  0.73740969  0.37278830
   0.30349760  0.11418195  0.11008243
  -0.01258145  0.00229140  0.20204265
  -0.01334331  0.21547500  0.20166172
   0.68990372  0.45130743  0.05328499
   0.33333300  0.33333300  0.12500012
   0.33862944  0.54721299  0.12764834
   0.00711207  0.78453916  0.21188941
   0.68736011  0.66696159  0.05201318
   0.66327735  0.88293809  0.03997180
   0.33333300  0.11815279  0.37500012
   0.00000000  0.00000000  0.45833338
  -0.03234758  0.21645108  0.44215958
   0.68202941  0.45185670  0.29934783
   0.36727549  0.33662436  0.39197137
   0.35111689  0.54956851  0.38389207
   0.00410811  0.78398891  0.46038743
   0.67690793  0.66417832  0.29678709
   0.66007310  0.88198784  0.28836967
Direct configuration=     8
   0.70724930  0.27745525  0.06195778
   0.66666700  0.06418863  0.04166662
  -0.03990367  0.60215227  0.18838154
  -0.02239198  0.40386503  0.19713739
   0.33665706  0.92814009  0.12666216
   0.33637716  0.72419444  0.12652220
   0.66666700  0.26914537  0.29166662
   0.66666700  0.06418863  0.29166662
  -0.03213973  0.60426764  0.44226351
  -0.03702884  0.39253688  0.43981896
   0.33246790  0.94513647  0.37456758
   0.33042262  0.73826088  0.37354493
   0.30008873  0.11431860  0.10837799
  -0.01610806  0.00257189  0.20027935
  -0.01234068  0.21573473  0.20216303
   0.68491621  0.45287297  0.05079123
   0.33333300  0.33333300  0.12500012
   0.33864611  0.54643005  0.12765668
   0.00315318  0.78420818  0.20990996
   0.68573724  0.66716539  0.05120175
   0.66039231  0.88253880  0.03852928
   0.33333300  0.11815279  0.37500012
   0.00000000  0.00000000  0.45833338
  -0.04040481  0.21700957  0.43813097
   0.68052207  0.45247024  0.29859416
   0.37356453  0.33531029  0.39511589
   0.35069734  0.54945788  0.38368230
   0.00618043  0.78428067  0.46142359
   0.67745629  0.66386065  0.29706127
   0.66475978  0.88233356  0.29071301
Direct configuration=     9
   0.70795662  0.27780726  0.06231143
   0.66666700  0.06418863  0.04166662
  -0.04016082  0.60202015  0.18825297
  -0.02177630  0.40400894  0.19744523
   0.33663307  0.92801145  0.12665016
   0.33700370  0.72414382  0.12683547
   0.66666700  0.26914537  0.29166662
   0.66666700  0.06418863  0.29166662
  -0.03260054  0.60438028  0.44203310
  -0.03714163  0.39248205  0.43976256
   0.33187860  0.94538262  0.37427292
   0.33065332  0.73839065  0.37366028
   0.29956905  0.11433943  0.10811815
  -0.01664569  0.00261465  0.20001053
  -0.01218783  0.21577432  0.20223946
   0.68415586  0.45311163  0.05041106
   0.33333300  0.33333300  0.12500012
   0.33864865  0.54631069  0.12765795
   0.00254964  0.78415772  0.20960820
   0.68548983  0.66719646  0.05107804
   0.65995248  0.88247793  0.03830937
   0.33333300  0.11815279  0.37500012
   0.00000000  0.00000000  0.45833338
  -0.04163314  0.21709471  0.43751681
   0.68029227  0.45256378  0.29847926
   0.37452330  0.33510995  0.39559527
   0.35063338  0.54944102  0.38365032
   0.00649635  0.78432515  0.46158155
   0.67753989  0.66381222  0.29710307
   0.66547426  0.88238626  0.29107026
Direct configuration=    10
   0.70937124  0.27851127  0.06301874
   0.66666700  0.06418863  0.04166662
  -0.04067511  0.60175591  0.18799582
  -0.02054493  0.40429675  0.19806091
   0.33658509  0.92775416  0.12662617
   0.33825678  0.72404258  0.12746202
   0.66666700  0.26914537  0.29166662
   0.66666700  0.06418863  0.29166662
  -0.03352218  0.60460555  0.44157228
  -0.03736722  0.39237237  0.43964977
   0.33069998  0.94587493  0.37368362
   0.33111471  0.73865018  0.37389098
   0.29852968  0.11438109  0.10759846
  -0.01772096  0.00270017  0.19947290
  -0.01188213  0.21585351  0.20239231
   0.68263516  0.45358897  0.04965071
   0.33333300  0.33333300  0.12500012
   0.33865373  0.54607197  0.12766049
   0.00134257  0.78405680  0.20900466
   0.68499502  0.66725859  0.05083063
   0.65907283  0.88235618  0.03786954
   0.33333300  0.11815279  0.37500012
   0.00000000  0.00000000  0.45833338
  -0.04408980  0.21726499  0.43628848
   0.67983268  0.45275085  0.29824947
   0.37644084  0.33470929  0.39655404
   0.35050546  0.54940729  0.38358635
   0.00712821  0.78441411  0.46189748
   0.67770709  0.66371536  0.29718667
   0.66690324  0.88249167  0.29178474
Direct configuration=    11
   0.71220048  0.27991930  0.06443337
   0.66666700  0.06418863  0.04166662
  -0.04170369  0.60122742  0.18748153
  -0.01808220  0.40487239  0.19929228
   0.33648914  0.92723960  0.12657819
   0.34076295  0.72384009  0.12871510
   0.66666700  0.26914537  0.29166662
   0.66666700  0.06418863  0.29166662
  -0.03536545  0.60505610  0.44065065
  -0.03781839  0.39215302  0.43942418
   0.32834275  0.94685955  0.37250500
   0.33203751  0.73916924  0.37435238
   0.29645094  0.11446442  0.10655910
  -0.01987149  0.00287121  0.19839763
  -0.01127072  0.21601189  0.20269801
   0.67959376  0.45454363  0.04813001
   0.33333300  0.33333300  0.12500012
   0.33866390  0.54559453  0.12766557
  -0.00107157  0.78385497  0.20779759
   0.68400539  0.66738287  0.05033582
   0.65731352  0.88211270  0.03698989
   0.33333300  0.11815279  0.37500012
   0.00000000  0.00000000  0.45833338
  -0.04900312  0.21760556  0.43383182
   0.67891350  0.45312499  0.29778987
   0.38027591  0.33390797  0.39847158
   0.35024962  0.54933983  0.38345843
   0.00839191  0.78459202  0.46252933
   0.67804148  0.66352164  0.29735386
   0.66976119  0.88270249  0.29321372
Direct configuration=    12
   0.71563265  0.28128937  0.06614945
   0.66666700  0.06418863  0.04166662
  -0.04265530  0.60017095  0.18700573
  -0.02088097  0.40752312  0.19789289
   0.33461556  0.92560233  0.12564140
   0.34639583  0.72325001  0.13153154
   0.66666700  0.26914537  0.29166662
   0.66666700  0.06418863  0.29166662
  -0.03655047  0.60478263  0.44005814
  -0.03706951  0.39228122  0.43979862
   0.32033323  0.94851025  0.36850024
   0.33541988  0.74055776  0.37604356
   0.29487763  0.11535982  0.10577244
  -0.02468182  0.00309360  0.19599246
  -0.01350886  0.21707881  0.20157895
   0.68078939  0.45549284  0.04872782
   0.33333300  0.33333300  0.12500012
   0.33810140  0.54399044  0.12738433
  -0.00574393  0.78379552  0.20546141
   0.68059176  0.66739484  0.04862900
   0.65566785  0.88192796  0.03616705
   0.33333300  0.11815279  0.37500012
   0.00000000  0.00000000  0.45833338
  -0.04980263  0.21731727  0.43343206
   0.67736170  0.45374632  0.29701398
   0.38740332  0.33182584  0.40203529
   0.34975064  0.54989559  0.38320894
   0.00953881  0.78475480  0.46310278
   0.67569398  0.66376385  0.29618011
   0.67678118  0.88330404  0.29672371
Direct configuration=    13
   0.71824578  0.28233249  0.06745601
   0.66666700  0.06418863  0.04166662
  -0.04337982  0.59936659  0.18664347
  -0.02301185  0.40954129  0.19682745
   0.33318908  0.92435577  0.12492817
   0.35068452  0.72280074  0.13367588
   0.66666700  0.26914537  0.29166662
   0.66666700  0.06418863  0.29166662
  -0.03745269  0.60457442  0.43960703
  -0.03649933  0.39237883  0.44008371
   0.31423507  0.94976703  0.36545116
   0.33799510  0.74161493  0.37733117
   0.29367977  0.11604154  0.10517351
  -0.02834423  0.00326291  0.19416126
  -0.01521289  0.21789112  0.20072693
   0.68169970  0.45621553  0.04918298
   0.33333300  0.33333300  0.12500012
   0.33767314  0.54276915  0.12717019
  -0.00930129  0.78375026  0.20368273
   0.67799274  0.66740396  0.04732949
   0.65441489  0.88178730  0.03554057
   0.33333300  0.11815279  0.37500012
   0.00000000  0.00000000  0.45833338
  -0.05041135  0.21709778  0.43312770
   0.67618022  0.45421938  0.29642324
   0.39282988  0.33024058  0.40474857
   0.34937074  0.55031874  0.38301899
   0.01041202  0.78487874  0.46353938
   0.67390667  0.66394826  0.29528646
   0.68212594  0.88376204  0.29939610
Direct configuration=    14
   0.71225433  0.28183404  0.06446029
   0.66666700  0.06418863  0.04166662
  -0.04603533  0.59886187  0.18531571
  -0.02543276  0.41096783  0.19561700
   0.33407714  0.92306932  0.12537219
   0.35610879  0.72103270  0.13638802
   0.66666700  0.26914537  0.29166662
   0.66666700  0.06418863  0.29166662
  -0.03626149  0.60439174  0.44020263
  -0.03780104  0.39199026  0.43943285
   0.30431126  0.95101534  0.36048925
   0.33687960  0.74222184  0.37677343
   0.29398433  0.11723126  0.10532579
  -0.03560634  0.00345973  0.19053021
  -0.01800162  0.21862385  0.19933256
   0.67956811  0.45803826  0.04811718
   0.33333300  0.33333300  0.12500012
   0.33726828  0.54079607  0.12696777
  -0.01134129  0.78449023  0.20266273
   0.67515633  0.66702467  0.04591129
   0.65202967  0.88099340  0.03434796
   0.33333300  0.11815279  0.37500012
   0.00000000  0.00000000  0.45833338
  -0.04332611  0.21591501  0.43667032
   0.67936733  0.45530724  0.29801679
   0.40120004  0.32889834  0.40893364
   0.34720518  0.55061337  0.38193621
   0.01375503  0.78589646  0.46521089
   0.67172919  0.66443695  0.29419772
   0.68839234  0.88434550  0.30252930
Direct configuration=    15
   0.70819533  0.28149636  0.06243079
   0.66666700  0.06418863  0.04166662
  -0.04783435  0.59851993  0.18441620
  -0.02707284  0.41193427  0.19479695
   0.33467877  0.92219779  0.12567301
   0.35978355  0.71983491  0.13822540
   0.66666700  0.26914537  0.29166662
   0.66666700  0.06418863  0.29166662
  -0.03545450  0.60426798  0.44060613
  -0.03868291  0.39172702  0.43899192
   0.29758821  0.95186103  0.35712773
   0.33612389  0.74263301  0.37639557
   0.29419066  0.11803725  0.10542896
  -0.04052617  0.00359306  0.18807029
  -0.01989090  0.21912025  0.19838793
   0.67812402  0.45927309  0.04739514
   0.33333300  0.33333300  0.12500012
   0.33699401  0.53945937  0.12683063
  -0.01272332  0.78499154  0.20197172
   0.67323476  0.66676771  0.04495050
   0.65041376  0.88045555  0.03354001
   0.33333300  0.11815279  0.37500012
   0.00000000  0.00000000  0.45833338
  -0.03852611  0.21511372  0.43907032
   0.68152649  0.45604423  0.29909637
   0.40687054  0.32798902  0.41176890
   0.34573809  0.55081298  0.38120267
   0.01601982  0.78658594  0.46634328
   0.67025402  0.66476801  0.29346014
   0.69263762  0.88474078  0.30465194
Direct configuration=    16
   0.70012067  0.28103949  0.05839346
   0.66666700  0.06418863  0.04166662
  -0.05109837  0.59819611  0.18278419
  -0.02822238  0.41194129  0.19422219
   0.33570710  0.92194066  0.12618718
   0.35852949  0.71929389  0.13759837
   0.66666700  0.26914537  0.29166662
   0.66666700  0.06418863  0.29166662
  -0.03570151  0.60443992  0.44048262
  -0.03902116  0.39090105  0.43882279
   0.29555378  0.95241714  0.35611052
   0.33384023  0.74327428  0.37525374
   0.29457557  0.11779461  0.10562141
  -0.04798633  0.00385020  0.18434021
  -0.01896590  0.21848392  0.19885042
   0.67627216  0.46063366  0.04646921
   0.33333300  0.33333300  0.12500012
   0.33824322  0.53895726  0.12745523
  -0.01153931  0.78497665  0.20256372
   0.67333205  0.66641970  0.04499915
   0.65042975  0.87956817  0.03354800
   0.33333300  0.11815279  0.37500012
   0.00000000  0.00000000  0.45833338
  -0.03929430  0.21548757  0.43868622
   0.68419570  0.45638530  0.30043098
   0.40985015  0.32810090  0.41325870
   0.34399944  0.55088534  0.38033334
   0.01569847  0.78701308  0.46618261
   0.67580766  0.66387088  0.29623695
   0.69430511  0.88458380  0.30548568
Direct configuration=    17
   0.69933844  0.28099523  0.05800235
   0.66666700  0.06418863  0.04166662
  -0.05141457  0.59816474  0.18262609
  -0.02833374  0.41194197  0.19416651
   0.33580672  0.92191575  0.12623698
   0.35840801  0.71924148  0.13753763
   0.66666700  0.26914537  0.29166662
   0.66666700  0.06418863  0.29166662
  -0.03572543  0.60445658  0.44047066
  -0.03905393  0.39082104  0.43880641
   0.29535670  0.95247101  0.35601198
   0.33361900  0.74333640  0.37514313
   0.29461286  0.11777110  0.10564005
  -0.04870903  0.00387511  0.18397886
  -0.01887629  0.21842227  0.19889523
   0.67609277  0.46076547  0.04637951
   0.33333300  0.33333300  0.12500012
   0.33836423  0.53890862  0.12751574
  -0.01142461  0.78497521  0.20262107
   0.67334147  0.66638599  0.04500386
   0.65043130  0.87948220  0.03354878
   0.33333300  0.11815279  0.37500012
   0.00000000  0.00000000  0.45833338
  -0.03936872  0.21552379  0.43864902
   0.68445428  0.45641834  0.30056027
   0.41013879  0.32811174  0.41340302
   0.34383101  0.55089235  0.38024913
   0.01566734  0.78705446  0.46616704
   0.67634566  0.66378397  0.29650596
   0.69446665  0.88456860  0.30556645
Direct configuration=    18
   0.69848265  0.28070113  0.05757445
   0.66666700  0.06418863  0.04166662
  -0.05233654  0.59781404  0.18216510
  -0.03274703  0.41256666  0.19195986
   0.33542707  0.92151729  0.12604716
   0.35728054  0.71913468  0.13697390
   0.66666700  0.26914537  0.29166662
   0.66666700  0.06418863  0.29166662
  -0.03454097  0.60414926  0.44106289
  -0.03797960  0.39049052  0.43934358
   0.29613796  0.95270398  0.35640261
   0.33332716  0.74385852  0.37499720
   0.29522583  0.11735342  0.10594654
  -0.05266149  0.00358580  0.18200263
  -0.02082255  0.21845332  0.19792210
   0.67926805  0.46124304  0.04796715
   0.33333300  0.33333300  0.12500012
   0.33959855  0.53878152  0.12813290
  -0.01116589  0.78453001  0.20275043
   0.67384456  0.66614524  0.04525541
   0.65282097  0.87895408  0.03474361
   0.33333300  0.11815279  0.37500012
   0.00000000  0.00000000  0.45833338
  -0.04217613  0.21648444  0.43724531
   0.68515563  0.45604909  0.30091094
   0.41000593  0.32813204  0.41333659
   0.34233530  0.55084887  0.37950127
   0.01364777  0.78717499  0.46515726
   0.67919075  0.66338078  0.29792850
   0.69418335  0.88458870  0.30542480
Direct configuration=    19
   0.69857986  0.28073454  0.05762305
   0.66666700  0.06418863  0.04166662
  -0.05223181  0.59785387  0.18221747
  -0.03224572  0.41249570  0.19221052
   0.33547020  0.92156255  0.12606872
   0.35740861  0.71914682  0.13703793
   0.66666700  0.26914537  0.29166662
   0.66666700  0.06418863  0.29166662
  -0.03467551  0.60418417  0.44099562
  -0.03810163  0.39052806  0.43928256
   0.29604922  0.95267752  0.35635823
   0.33336031  0.74379921  0.37501378
   0.29515620  0.11740086  0.10591173
  -0.05221253  0.00361866  0.18222711
  -0.02060147  0.21844979  0.19803264
   0.67890737  0.46118879  0.04778681
   0.33333300  0.33333300  0.12500012
   0.33945834  0.53879596  0.12806280
  -0.01119528  0.78458058  0.20273574
   0.67378742  0.66617258  0.04522683
   0.65254952  0.87901407  0.03460789
   0.33333300  0.11815279  0.37500012
   0.00000000  0.00000000  0.45833338
  -0.04185724  0.21637532  0.43740476
   0.68507596  0.45609103  0.30087110
   0.41002102  0.32812973  0.41334414
   0.34250520  0.55085381  0.37958622
   0.01387717  0.78716130  0.46527196
   0.67886757  0.66342658  0.29776691
   0.69421553  0.88458642  0.30544089
Direct configuration=    20
   0.70064165  0.28078060  0.05865395
   0.66666700  0.06418863  0.04166662
  -0.05108889  0.59766711  0.18278893
  -0.03231136  0.41241971  0.19217770
   0.33514012  0.92129871  0.12590368
   0.35744950  0.71896270  0.13705838
   0.66666700  0.26914537  0.29166662
   0.66666700  0.06418863  0.29166662
  -0.03308903  0.60366139  0.44178886
  -0.03698232  0.39057856  0.43984222
   0.29684960  0.95276499  0.35675842
   0.33366854  0.74376359  0.37516789
   0.29610979  0.11719532  0.10638852
  -0.05313241  0.00301118  0.18176717
  -0.02320891  0.21864912  0.19672892
   0.67830510  0.46209761  0.04748567
   0.33333300  0.33333300  0.12500012
   0.34032441  0.53876993  0.12849583
  -0.01215502  0.78420252  0.20225587
   0.67406732  0.66604200  0.04536679
   0.65496557  0.87846716  0.03581591
   0.33333300  0.11815279  0.37500012
   0.00000000  0.00000000  0.45833338
  -0.04265476  0.21711163  0.43700600
   0.68543368  0.45546540  0.30104997
   0.40876527  0.32799821  0.41271626
   0.34139629  0.55066673  0.37903177
   0.01233252  0.78746373  0.46449963
   0.67904191  0.66353073  0.29785408
   0.69360968  0.88472180  0.30513796
