  30  30   1   0
  0.6786351E+02  0.4330646E-09  0.4330646E-09  0.1253492E-07  0.5000000E-15
  1.000000000000000E-004
  CAR 
 Tetradymite Slab                        
      8.26648974    -14.32194229  301      0.45776544      1.00000000
    -14.322  0.0000E+00  0.0000E+00
    -14.247  0.0000E+00  0.0000E+00
    -14.171  0.0000E+00  0.0000E+00
    -14.096  0.0000E+00  0.0000E+00
    -14.021  0.0000E+00  0.0000E+00
    -13.945 -0.5827E-30 -0.4387E-31
    -13.870 -0.2325E-27 -0.1755E-28
    -13.795 -0.6716E-25 -0.5074E-26
    -13.720 -0.1464E-22 -0.1107E-23
    -13.644 -0.2410E-20 -0.1826E-21
    -13.569 -0.2998E-18 -0.2276E-19
    -13.494 -0.2770E-16 -0.2108E-17
    -13.418 -0.1942E-14 -0.1483E-15
    -13.343 -0.1044E-12 -0.8010E-14
    -13.268 -0.4245E-11 -0.3276E-12
    -13.193 -0.1307E-09 -0.1017E-10
    -13.117 -0.3049E-08 -0.2398E-09
    -13.042 -0.5385E-07 -0.4295E-08
    -12.967 -0.7190E-06 -0.5843E-07
    -12.891 -0.7238E-05 -0.6034E-06
    -12.816 -0.5465E-04 -0.4719E-05
    -12.741 -0.3069E-03 -0.2783E-04
    -12.665 -0.1261E-02 -0.1228E-03
    -12.590 -0.3657E-02 -0.3981E-03
    -12.515 -0.6780E-02 -0.9086E-03
    -12.440 -0.4600E-02 -0.1255E-02
    -12.364  0.1557E-01 -0.8277E-04
    -12.289  0.6425E-01  0.4755E-02
    -12.214  0.1349E+00  0.1491E-01
    -12.138  0.2021E+00  0.3013E-01
    -12.063  0.2415E+00  0.4831E-01
    -11.988  0.2557E+00  0.6757E-01
    -11.913  0.2707E+00  0.8795E-01
    -11.837  0.3015E+00  0.1107E+00
    -11.762  0.3407E+00  0.1363E+00
    -11.687  0.3906E+00  0.1657E+00
    -11.611  0.4670E+00  0.2009E+00
    -11.536  0.5501E+00  0.2423E+00
    -11.461  0.5861E+00  0.2864E+00
    -11.385  0.5656E+00  0.3290E+00
    -11.310  0.5525E+00  0.3706E+00
    -11.235  0.5975E+00  0.4156E+00
    -11.160  0.6624E+00  0.4655E+00
    -11.084  0.6727E+00  0.5161E+00
    -11.009  0.6279E+00  0.5634E+00
    -10.934  0.6142E+00  0.6097E+00
    -10.858  0.6986E+00  0.6623E+00
    -10.783  0.8499E+00  0.7263E+00
    -10.708  0.9963E+00  0.8013E+00
    -10.632  0.1141E+01  0.8872E+00
    -10.557  0.1361E+01  0.9896E+00
    -10.482  0.1682E+01  0.1116E+01
    -10.407  0.2010E+01  0.1268E+01
    -10.331  0.2193E+01  0.1433E+01
    -10.256  0.2085E+01  0.1590E+01
    -10.181  0.1625E+01  0.1712E+01
    -10.105  0.9509E+00  0.1784E+01
    -10.030  0.3486E+00  0.1810E+01
     -9.955  0.1646E-01  0.1811E+01
     -9.880 -0.7067E-01  0.1806E+01
     -9.804 -0.5057E-01  0.1802E+01
     -9.729 -0.2031E-01  0.1801E+01
     -9.654 -0.5552E-02  0.1800E+01
     -9.578 -0.1096E-02  0.1800E+01
     -9.503 -0.2083E-03  0.1800E+01
     -9.428 -0.3946E-03  0.1800E+01
     -9.352 -0.2082E-02  0.1800E+01
     -9.277 -0.8219E-02  0.1799E+01
     -9.202 -0.2211E-01  0.1798E+01
     -9.127 -0.3447E-01  0.1795E+01
     -9.051 -0.1819E-02  0.1795E+01
     -8.976  0.1439E+00  0.1806E+01
     -8.901  0.4199E+00  0.1837E+01
     -8.825  0.7250E+00  0.1892E+01
     -8.750  0.9025E+00  0.1960E+01
     -8.675  0.8898E+00  0.2027E+01
     -8.600  0.7788E+00  0.2085E+01
     -8.524  0.7202E+00  0.2140E+01
     -8.449  0.7755E+00  0.2198E+01
     -8.374  0.8713E+00  0.2264E+01
     -8.298  0.9102E+00  0.2332E+01
     -8.223  0.9020E+00  0.2400E+01
     -8.148  0.9318E+00  0.2470E+01
     -8.072  0.9982E+00  0.2545E+01
     -7.997  0.9786E+00  0.2619E+01
     -7.922  0.8005E+00  0.2679E+01
     -7.847  0.5526E+00  0.2721E+01
     -7.771  0.3745E+00  0.2749E+01
     -7.696  0.3130E+00  0.2773E+01
     -7.621  0.3149E+00  0.2796E+01
     -7.545  0.3008E+00  0.2819E+01
     -7.470  0.2349E+00  0.2837E+01
     -7.395  0.1548E+00  0.2848E+01
     -7.320  0.1223E+00  0.2858E+01
     -7.244  0.1498E+00  0.2869E+01
     -7.169  0.1946E+00  0.2884E+01
     -7.094  0.2120E+00  0.2900E+01
     -7.018  0.1920E+00  0.2914E+01
     -6.943  0.1579E+00  0.2926E+01
     -6.868  0.1407E+00  0.2937E+01
     -6.792  0.1493E+00  0.2948E+01
     -6.717  0.1623E+00  0.2960E+01
     -6.642  0.1548E+00  0.2972E+01
     -6.567  0.1254E+00  0.2981E+01
     -6.491  0.9283E-01  0.2988E+01
     -6.416  0.6923E-01  0.2993E+01
     -6.341  0.5046E-01  0.2997E+01
     -6.265  0.3038E-01  0.2999E+01
     -6.190  0.1210E-01  0.3000E+01
     -6.115  0.1312E-02  0.3000E+01
     -6.040 -0.1981E-02  0.3000E+01
     -5.964 -0.1661E-02  0.3000E+01
     -5.889 -0.7577E-03  0.3000E+01
     -5.814 -0.2402E-03  0.3000E+01
     -5.738 -0.5613E-04  0.3000E+01
     -5.663 -0.9835E-05  0.3000E+01
     -5.588 -0.1300E-05  0.3000E+01
     -5.512 -0.1917E-06  0.3000E+01
     -5.437 -0.8555E-06  0.3000E+01
     -5.362 -0.8569E-05  0.3000E+01
     -5.287 -0.6546E-04  0.3000E+01
     -5.211 -0.3751E-03  0.3000E+01
     -5.136 -0.1594E-02  0.3000E+01
     -5.061 -0.4892E-02  0.2999E+01
     -4.985 -0.1013E-01  0.2999E+01
     -4.910 -0.1072E-01  0.2998E+01
     -4.835  0.1045E-01  0.2999E+01
     -4.760  0.7377E-01  0.3004E+01
     -4.684  0.1859E+00  0.3018E+01
     -4.609  0.3315E+00  0.3043E+01
     -4.534  0.4807E+00  0.3079E+01
     -4.458  0.5997E+00  0.3125E+01
     -4.383  0.6607E+00  0.3174E+01
     -4.308  0.6565E+00  0.3224E+01
     -4.232  0.6122E+00  0.3270E+01
     -4.157  0.5786E+00  0.3313E+01
     -4.082  0.5866E+00  0.3358E+01
     -4.007  0.6024E+00  0.3403E+01
     -3.931  0.5712E+00  0.3446E+01
     -3.856  0.5136E+00  0.3485E+01
     -3.781  0.5280E+00  0.3524E+01
     -3.705  0.6725E+00  0.3575E+01
     -3.630  0.8820E+00  0.3641E+01
     -3.555  0.1035E+01  0.3719E+01
     -3.479  0.1092E+01  0.3802E+01
     -3.404  0.1130E+01  0.3887E+01
     -3.329  0.1214E+01  0.3978E+01
     -3.254  0.1299E+01  0.4076E+01
     -3.178  0.1296E+01  0.4173E+01
     -3.103  0.1220E+01  0.4265E+01
     -3.028  0.1204E+01  0.4356E+01
     -2.952  0.1339E+01  0.4457E+01
     -2.877  0.1540E+01  0.4573E+01
     -2.802  0.1634E+01  0.4696E+01
     -2.727  0.1577E+01  0.4815E+01
     -2.651  0.1472E+01  0.4925E+01
     -2.576  0.1399E+01  0.5031E+01
     -2.501  0.1348E+01  0.5132E+01
     -2.425  0.1319E+01  0.5232E+01
     -2.350  0.1345E+01  0.5333E+01
     -2.275  0.1417E+01  0.5440E+01
     -2.199  0.1474E+01  0.5551E+01
     -2.124  0.1481E+01  0.5662E+01
     -2.049  0.1453E+01  0.5772E+01
     -1.974  0.1399E+01  0.5877E+01
     -1.898  0.1295E+01  0.5974E+01
     -1.823  0.1136E+01  0.6060E+01
     -1.748  0.9809E+00  0.6134E+01
     -1.672  0.9071E+00  0.6202E+01
     -1.597  0.9175E+00  0.6271E+01
     -1.522  0.9457E+00  0.6342E+01
     -1.447  0.9487E+00  0.6414E+01
     -1.371  0.9422E+00  0.6485E+01
     -1.296  0.9545E+00  0.6557E+01
     -1.221  0.9951E+00  0.6632E+01
     -1.145  0.1058E+01  0.6711E+01
     -1.070  0.1129E+01  0.6796E+01
     -0.995  0.1193E+01  0.6886E+01
     -0.919  0.1234E+01  0.6979E+01
     -0.844  0.1238E+01  0.7072E+01
     -0.769  0.1222E+01  0.7164E+01
     -0.694  0.1234E+01  0.7257E+01
     -0.618  0.1303E+01  0.7355E+01
     -0.543  0.1389E+01  0.7460E+01
     -0.468  0.1425E+01  0.7567E+01
     -0.392  0.1386E+01  0.7671E+01
     -0.317  0.1319E+01  0.7771E+01
     -0.242  0.1281E+01  0.7867E+01
     -0.167  0.1272E+01  0.7963E+01
     -0.091  0.1242E+01  0.8056E+01
     -0.016  0.1159E+01  0.8144E+01
      0.059  0.1035E+01  0.8222E+01
      0.135  0.8752E+00  0.8288E+01
      0.210  0.6735E+00  0.8338E+01
      0.285  0.4481E+00  0.8372E+01
      0.361  0.2477E+00  0.8391E+01
      0.436  0.1091E+00  0.8399E+01
      0.511  0.3263E-01  0.8401E+01
      0.586 -0.1057E-02  0.8401E+01
      0.662 -0.9812E-02  0.8401E+01
      0.737 -0.5368E-02  0.8400E+01
      0.812  0.5877E-02  0.8401E+01
      0.888  0.2406E-01  0.8402E+01
      0.963  0.5760E-01  0.8407E+01
      1.038  0.1192E+00  0.8416E+01
      1.113  0.2174E+00  0.8432E+01
      1.189  0.3596E+00  0.8459E+01
      1.264  0.5579E+00  0.8501E+01
      1.339  0.8106E+00  0.8562E+01
      1.415  0.1079E+01  0.8643E+01
      1.490  0.1309E+01  0.8742E+01
      1.565  0.1475E+01  0.8853E+01
      1.641  0.1582E+01  0.8972E+01
      1.716  0.1626E+01  0.9095E+01
      1.791  0.1611E+01  0.9216E+01
      1.866  0.1575E+01  0.9335E+01
      1.942  0.1548E+01  0.9451E+01
      2.017  0.1505E+01  0.9564E+01
      2.092  0.1412E+01  0.9671E+01
      2.168  0.1276E+01  0.9767E+01
      2.243  0.1145E+01  0.9853E+01
      2.318  0.1059E+01  0.9933E+01
      2.393  0.1019E+01  0.1001E+02
      2.469  0.1014E+01  0.1009E+02
      2.544  0.1037E+01  0.1016E+02
      2.619  0.1060E+01  0.1024E+02
      2.695  0.1023E+01  0.1032E+02
      2.770  0.8830E+00  0.1039E+02
      2.845  0.6809E+00  0.1044E+02
      2.921  0.5435E+00  0.1048E+02
      2.996  0.5799E+00  0.1052E+02
      3.071  0.7695E+00  0.1058E+02
      3.146  0.9821E+00  0.1065E+02
      3.222  0.1104E+01  0.1074E+02
      3.297  0.1115E+01  0.1082E+02
      3.372  0.1070E+01  0.1090E+02
      3.448  0.1049E+01  0.1098E+02
      3.523  0.1096E+01  0.1106E+02
      3.598  0.1176E+01  0.1115E+02
      3.674  0.1210E+01  0.1124E+02
      3.749  0.1175E+01  0.1133E+02
      3.824  0.1132E+01  0.1142E+02
      3.899  0.1149E+01  0.1150E+02
      3.975  0.1208E+01  0.1160E+02
      4.050  0.1216E+01  0.1169E+02
      4.125  0.1133E+01  0.1177E+02
      4.201  0.1037E+01  0.1185E+02
      4.276  0.1005E+01  0.1193E+02
      4.351  0.1007E+01  0.1200E+02
      4.426  0.9764E+00  0.1207E+02
      4.502  0.9078E+00  0.1214E+02
      4.577  0.8467E+00  0.1221E+02
      4.652  0.8123E+00  0.1227E+02
      4.728  0.7695E+00  0.1233E+02
      4.803  0.6793E+00  0.1238E+02
      4.878  0.5543E+00  0.1242E+02
      4.954  0.4516E+00  0.1245E+02
      5.029  0.4313E+00  0.1249E+02
      5.104  0.5126E+00  0.1252E+02
      5.179  0.6497E+00  0.1257E+02
      5.255  0.7566E+00  0.1263E+02
      5.330  0.7586E+00  0.1269E+02
      5.405  0.6234E+00  0.1273E+02
      5.481  0.3877E+00  0.1276E+02
      5.556  0.1558E+00  0.1277E+02
      5.631  0.2321E-01  0.1278E+02
      5.706  0.3910E-04  0.1278E+02
      5.782  0.3067E-01  0.1278E+02
      5.857  0.6057E-01  0.1278E+02
      5.932  0.6767E-01  0.1279E+02
      6.008  0.5481E-01  0.1279E+02
      6.083  0.3524E-01  0.1280E+02
      6.158  0.2149E-01  0.1280E+02
      6.234  0.1627E-01  0.1280E+02
      6.309  0.1337E-01  0.1280E+02
      6.384  0.8170E-02  0.1280E+02
      6.459  0.2580E-02  0.1280E+02
      6.535 -0.3895E-03  0.1280E+02
      6.610 -0.8551E-03  0.1280E+02
      6.685 -0.4617E-03  0.1280E+02
      6.761 -0.1494E-03  0.1280E+02
      6.836 -0.3296E-04  0.1280E+02
      6.911 -0.5187E-05  0.1280E+02
      6.986 -0.5952E-06  0.1280E+02
      7.062 -0.5036E-07  0.1280E+02
      7.137 -0.3165E-08  0.1280E+02
      7.212 -0.1483E-09  0.1280E+02
      7.288 -0.5198E-11  0.1280E+02
      7.363 -0.1365E-12  0.1280E+02
      7.438 -0.2691E-14  0.1280E+02
      7.514 -0.4096E-16  0.1280E+02
      7.589  0.0000E+00  0.1280E+02
      7.664  0.0000E+00  0.1280E+02
      7.739  0.0000E+00  0.1280E+02
      7.815  0.0000E+00  0.1280E+02
      7.890  0.0000E+00  0.1280E+02
      7.965  0.0000E+00  0.1280E+02
      8.041  0.0000E+00  0.1280E+02
      8.116  0.0000E+00  0.1280E+02
      8.191  0.0000E+00  0.1280E+02
      8.266  0.0000E+00  0.1280E+02
      8.26648974    -14.32194229  301      0.45776544      1.00000000
    -14.322  0.0000E+00  0.0000E+00  0.0000E+00  0.0000E+00  0.0000E+00  0.0000E+00  0.0000E+00  0.0000E+00  0.0000E+00
    -14.247  0.0000E+00  0.0000E+00  0.0000E+00  0.0000E+00  0.0000E+00  0.0000E+00  0.0000E+00  0.0000E+00  0.0000E+00
    -14.171  0.0000E+00  0.0000E+00  0.0000E+00  0.0000E+00  0.0000E+00  0.0000E+00  0.0000E+00  0.0000E+00  0.0000E+00
    -14.096  0.0000E+00  0.0000E+00  0.0000E+00  0.0000E+00  0.0000E+00  0.0000E+00  0.0000E+00  0.0000E+00  0.0000E+00
    -14.021  0.0000E+00  0.0000E+00  0.0000E+00  0.0000E+00  0.0000E+00  0.0000E+00  0.0000E+00  0.0000E+00  0.0000E+00
    -13.945 -0.4137E-30 -0.9964E-42 -0.6974E-34 -0.2992E-41 -0.6907E-43 -0.1207E-43 -0.4092E-35 -0.3629E-43 -0.2305E-43
    -13.870 -0.1631E-27 -0.6528E-32 -0.2817E-31 -0.1958E-31 -0.2232E-34 -0.3755E-35 -0.1595E-32 -0.1125E-34 -0.7445E-35
    -13.795 -0.4653E-25 -0.2310E-29 -0.8229E-29 -0.6927E-29 -0.7881E-32 -0.1340E-32 -0.4537E-30 -0.4014E-32 -0.2630E-32
    -13.720 -0.1001E-22 -0.6149E-27 -0.1815E-26 -0.1843E-26 -0.2095E-29 -0.3595E-30 -0.9724E-28 -0.1077E-29 -0.6991E-30
    -13.644 -0.1623E-20 -0.1230E-24 -0.3025E-24 -0.3685E-24 -0.4183E-27 -0.7256E-28 -0.1571E-25 -0.2173E-27 -0.1397E-27
    -13.569 -0.1986E-18 -0.1850E-22 -0.3811E-22 -0.5536E-22 -0.6276E-25 -0.1102E-25 -0.1913E-23 -0.3298E-25 -0.2097E-25
    -13.494 -0.1795E-16 -0.2090E-20 -0.3579E-20 -0.6247E-20 -0.7073E-23 -0.1258E-23 -0.1717E-21 -0.3764E-23 -0.2365E-23
    -13.418 -0.1238E-14 -0.1714E-18 -0.2535E-18 -0.5111E-18 -0.5783E-21 -0.1043E-21 -0.1179E-19 -0.3116E-21 -0.1936E-21
    -13.343 -0.6509E-13 -0.1095E-16 -0.1382E-16 -0.3253E-16 -0.3676E-19 -0.6759E-20 -0.6147E-18 -0.2016E-19 -0.1234E-19
    -13.268 -0.2582E-11 -0.5222E-15 -0.5697E-15 -0.1543E-14 -0.1743E-17 -0.3270E-18 -0.2417E-16 -0.9725E-18 -0.5869E-18
    -13.193 -0.7735E-10 -0.1871E-13 -0.1778E-13 -0.5483E-13 -0.6198E-16 -0.1191E-16 -0.7174E-15 -0.3525E-16 -0.2097E-16
    -13.117 -0.1750E-08 -0.5039E-12 -0.4202E-12 -0.1457E-11 -0.1651E-14 -0.3264E-15 -0.1607E-13 -0.9592E-15 -0.5632E-15
    -13.042 -0.2987E-07 -0.1021E-10 -0.7510E-11 -0.2890E-10 -0.3293E-13 -0.6747E-14 -0.2711E-12 -0.1960E-13 -0.1138E-13
    -12.967 -0.3837E-06 -0.1559E-09 -0.1013E-09 -0.4271E-09 -0.4923E-12 -0.1054E-12 -0.3442E-11 -0.3009E-12 -0.1734E-12
    -12.891 -0.3697E-05 -0.1801E-08 -0.1028E-08 -0.4691E-08 -0.5520E-11 -0.1251E-11 -0.3274E-10 -0.3475E-11 -0.2000E-11
    -12.816 -0.2654E-04 -0.1579E-07 -0.7806E-08 -0.3813E-07 -0.4655E-10 -0.1133E-10 -0.2318E-09 -0.3026E-10 -0.1757E-10
    -12.741 -0.1404E-03 -0.1055E-06 -0.4386E-07 -0.2283E-06 -0.2967E-09 -0.7877E-10 -0.1206E-08 -0.1994E-09 -0.1182E-09
    -12.665 -0.5364E-03 -0.5384E-06 -0.1790E-06 -0.9975E-06 -0.1439E-08 -0.4225E-09 -0.4500E-08 -0.9989E-09 -0.6119E-09
    -12.590 -0.1411E-02 -0.2080E-05 -0.5102E-06 -0.3130E-05 -0.5341E-08 -0.1739E-08 -0.1135E-07 -0.3818E-08 -0.2424E-08
    -12.515 -0.2204E-02 -0.5890E-05 -0.9084E-06 -0.6766E-05 -0.1513E-07 -0.5352E-08 -0.1583E-07 -0.1107E-07 -0.7137E-08
    -12.440 -0.3680E-03 -0.1110E-04 -0.5173E-06 -0.8556E-05 -0.3158E-07 -0.1141E-07  0.4932E-08 -0.2366E-07 -0.1429E-07
    -12.364  0.8237E-02 -0.8674E-05  0.2138E-05  0.1182E-05 -0.4283E-07 -0.1260E-07  0.8227E-07 -0.3371E-07 -0.1318E-07
    -12.289  0.2551E-01  0.2126E-04  0.7136E-05  0.3725E-04 -0.1496E-07  0.1097E-07  0.2148E-06 -0.1905E-07  0.2298E-07
    -12.214  0.4715E-01  0.9420E-04  0.1018E-04  0.1114E-03  0.1001E-06  0.7502E-07  0.3360E-06  0.4930E-07  0.1164E-06
    -12.138  0.6446E-01  0.2014E-03  0.3965E-05  0.2205E-03  0.3727E-06  0.1503E-06  0.3538E-06  0.2133E-06  0.2409E-06
    -12.063  0.7212E-01  0.3296E-03 -0.8491E-05  0.3513E-03  0.9756E-06  0.1682E-06  0.2546E-06  0.5972E-06  0.3310E-06
    -11.988  0.7412E-01  0.4894E-03  0.8110E-05  0.5073E-03  0.2140E-05  0.1414E-06  0.1914E-06  0.1411E-05  0.3877E-06
    -11.913  0.7863E-01  0.6642E-03  0.1227E-03  0.6992E-03  0.3754E-05  0.3087E-06  0.4625E-06  0.2711E-05  0.5604E-06
    -11.837  0.8730E-01  0.7824E-03  0.3924E-03  0.8891E-03  0.5347E-05  0.1120E-05  0.1334E-05  0.4426E-05  0.1092E-05
    -11.762  0.9705E-01  0.8729E-03  0.8054E-03  0.1028E-02  0.7300E-05  0.3039E-05  0.2820E-05  0.7210E-05  0.2202E-05
    -11.687  0.1105E+00  0.1136E-02  0.1274E-02  0.1183E-02  0.1144E-04  0.6424E-05  0.4598E-05  0.1276E-04  0.4025E-05
    -11.611  0.1307E+00  0.1627E-02  0.1690E-02  0.1478E-02  0.1864E-04  0.1150E-04  0.6135E-05  0.2183E-04  0.6574E-05
    -11.536  0.1484E+00  0.2020E-02  0.1975E-02  0.1868E-02  0.2632E-04  0.1797E-04  0.6962E-05  0.3224E-04  0.9655E-05
    -11.461  0.1500E+00  0.2031E-02  0.2097E-02  0.2166E-02  0.3167E-04  0.2486E-04  0.6937E-05  0.4138E-04  0.1298E-04
    -11.385  0.1395E+00  0.1973E-02  0.2079E-02  0.2350E-02  0.3748E-04  0.3206E-04  0.6316E-05  0.5149E-04  0.1670E-04
    -11.310  0.1355E+00  0.2437E-02  0.2011E-02  0.2654E-02  0.5071E-04  0.4117E-04  0.5537E-05  0.6906E-04  0.2150E-04
    -11.235  0.1453E+00  0.3386E-02  0.1967E-02  0.3220E-02  0.7214E-04  0.5238E-04  0.4861E-05  0.9503E-04  0.2714E-04
    -11.160  0.1542E+00  0.4024E-02  0.1911E-02  0.3797E-02  0.9118E-04  0.6276E-04  0.4236E-05  0.1187E-03  0.3220E-04
    -11.084  0.1472E+00  0.3852E-02  0.1769E-02  0.4041E-02  0.9892E-04  0.7133E-04  0.3567E-05  0.1311E-03  0.3685E-04
    -11.009  0.1310E+00  0.3514E-02  0.1591E-02  0.4098E-02  0.1050E-03  0.8252E-04  0.2944E-05  0.1436E-03  0.4389E-04
    -10.934  0.1247E+00  0.4079E-02  0.1638E-02  0.4494E-02  0.1304E-03  0.9951E-04  0.2580E-05  0.1804E-03  0.5460E-04
    -10.858  0.1341E+00  0.5563E-02  0.2323E-02  0.5421E-02  0.1807E-03  0.1187E-03  0.2666E-05  0.2484E-03  0.6599E-04
    -10.783  0.1447E+00  0.6802E-02  0.3971E-02  0.6517E-02  0.2387E-03  0.1390E-03  0.3254E-05  0.3301E-03  0.7679E-04
    -10.708  0.1427E+00  0.7072E-02  0.6582E-02  0.7490E-02  0.2928E-03  0.1757E-03  0.4296E-05  0.4179E-03  0.9570E-04
    -10.632  0.1316E+00  0.7129E-02  0.9822E-02  0.8672E-02  0.3625E-03  0.2577E-03  0.5789E-05  0.5465E-03  0.1394E-03
    -10.557  0.1232E+00  0.7973E-02  0.1316E-01  0.1060E-01  0.4787E-03  0.4149E-03  0.7692E-05  0.7661E-03  0.2235E-03
    -10.482  0.1183E+00  0.9172E-02  0.1601E-01  0.1314E-01  0.6393E-03  0.6750E-03  0.9610E-05  0.1080E-02  0.3597E-03
    -10.407  0.1071E+00  0.9342E-02  0.1773E-01  0.1539E-01  0.7925E-03  0.1039E-02  0.1079E-04  0.1404E-02  0.5455E-03
    -10.331  0.8366E-01  0.7902E-02  0.1749E-01  0.1627E-01  0.8567E-03  0.1403E-02  0.1053E-04  0.1579E-02  0.7279E-03
    -10.256  0.5323E-01  0.5471E-02  0.1463E-01  0.1479E-01  0.7641E-03  0.1536E-02  0.8560E-05  0.1448E-02  0.7917E-03
    -10.181  0.2572E-01  0.2981E-02  0.9608E-02  0.1072E-01  0.5258E-03  0.1270E-02  0.5440E-05  0.1015E-02  0.6532E-03
    -10.105  0.7628E-02  0.1098E-02  0.4368E-02  0.5502E-02  0.2493E-03  0.7291E-03  0.2382E-05  0.4881E-03  0.3748E-03
    -10.030 -0.5369E-03  0.8925E-04  0.8810E-03  0.1462E-02  0.5524E-04  0.2345E-03  0.4317E-06  0.1111E-03  0.1206E-03
     -9.955 -0.2251E-02 -0.2051E-03 -0.4376E-03 -0.3321E-03 -0.2167E-04 -0.1484E-04 -0.2719E-06 -0.4024E-04 -0.7662E-05
     -9.880 -0.1508E-02 -0.1644E-03 -0.4929E-03 -0.5510E-03 -0.2672E-04 -0.6197E-04 -0.2814E-06 -0.5125E-04 -0.3192E-04
     -9.804 -0.6211E-03 -0.7256E-04 -0.2418E-03 -0.2926E-03 -0.1330E-04 -0.3664E-04 -0.1346E-06 -0.2564E-04 -0.1887E-04
     -9.729 -0.1790E-03 -0.2189E-04 -0.7729E-04 -0.9674E-04 -0.4251E-05 -0.1287E-04 -0.4230E-07 -0.8213E-05 -0.6630E-05
     -9.654 -0.3806E-04 -0.4791E-05 -0.1754E-04 -0.2225E-04 -0.9575E-06 -0.3109E-05 -0.9482E-08 -0.1852E-05 -0.1600E-05
     -9.578 -0.1313E-04 -0.7840E-06 -0.2919E-05 -0.3719E-05 -0.1574E-06 -0.5420E-06 -0.1844E-08 -0.3057E-06 -0.2787E-06
     -9.503 -0.7124E-04 -0.1361E-06 -0.3900E-06 -0.5839E-06 -0.1947E-07 -0.7566E-07 -0.2993E-08 -0.4956E-07 -0.3716E-07
     -9.428 -0.5007E-03 -0.3232E-06 -0.2296E-06 -0.1036E-05 -0.3932E-08 -0.5264E-07 -0.1978E-07 -0.9759E-07 -0.1465E-07
     -9.352 -0.2581E-02 -0.1807E-05 -0.9541E-06 -0.5648E-05 -0.1327E-07 -0.2494E-06 -0.1010E-06 -0.5209E-06 -0.6436E-07
     -9.277 -0.9399E-02 -0.7556E-05 -0.3275E-05 -0.2291E-04 -0.6027E-07 -0.9517E-06 -0.3630E-06 -0.2047E-05 -0.2613E-06
     -9.202 -0.2262E-01 -0.2230E-04 -0.7529E-05 -0.6332E-04 -0.2087E-06 -0.2412E-05 -0.8523E-06 -0.5421E-05 -0.7291E-06
     -9.127 -0.2793E-01 -0.4236E-04 -0.9223E-05 -0.1028E-03 -0.5294E-06 -0.3242E-05 -0.9720E-06 -0.8062E-05 -0.1234E-05
     -9.051  0.2096E-01 -0.3110E-04  0.5302E-05 -0.1887E-04 -0.8723E-06  0.1585E-05  0.1091E-05  0.1094E-05 -0.5097E-06
     -8.976  0.1777E+00  0.9343E-04  0.5342E-04  0.3877E-03 -0.3864E-06  0.1817E-04  0.7244E-05  0.3805E-04  0.3575E-05
     -8.901  0.4280E+00  0.4035E-03  0.1379E-03  0.1180E-02  0.2599E-05  0.4475E-04  0.1646E-04  0.1036E-03  0.1220E-04
     -8.825  0.6586E+00  0.8472E-03  0.2316E-03  0.2092E-02  0.9202E-05  0.6844E-04  0.2391E-04  0.1680E-03  0.2396E-04
     -8.750  0.7492E+00  0.1225E-02  0.2901E-03  0.2699E-02  0.1809E-04  0.7764E-04  0.2513E-04  0.1927E-03  0.3567E-04
     -8.675  0.6901E+00  0.1393E-02  0.2994E-03  0.2827E-02  0.2683E-04  0.7515E-04  0.2041E-04  0.1741E-03  0.4454E-04
     -8.600  0.5877E+00  0.1482E-02  0.3097E-03  0.2678E-02  0.3619E-04  0.7426E-04  0.1403E-04  0.1551E-03  0.5061E-04
     -8.524  0.5566E+00  0.1728E-02  0.3960E-03  0.2538E-02  0.5042E-04  0.8559E-04  0.9669E-05  0.1860E-03  0.5744E-04
     -8.449  0.6113E+00  0.2064E-02  0.5857E-03  0.2452E-02  0.7107E-04  0.1098E-03  0.7527E-05  0.2735E-03  0.6770E-04
     -8.374  0.6716E+00  0.2111E-02  0.8655E-03  0.2287E-02  0.9232E-04  0.1384E-03  0.6778E-05  0.3684E-03  0.7840E-04
     -8.298  0.6755E+00  0.1741E-02  0.1274E-02  0.2021E-02  0.1059E-03  0.1606E-03  0.9766E-05  0.4136E-03  0.8531E-04
     -8.223  0.6573E+00  0.1406E-02  0.1914E-02  0.1827E-02  0.1102E-03  0.1718E-03  0.2065E-04  0.4093E-03  0.8898E-04
     -8.148  0.6750E+00  0.1632E-02  0.2735E-02  0.1817E-02  0.1090E-03  0.1706E-03  0.3786E-04  0.4025E-03  0.8976E-04
     -8.072  0.6938E+00  0.2230E-02  0.3382E-02  0.1824E-02  0.1021E-03  0.1531E-03  0.5182E-04  0.4003E-03  0.8305E-04
     -7.997  0.6222E+00  0.2401E-02  0.3530E-02  0.1592E-02  0.8561E-04  0.1196E-03  0.5429E-04  0.3538E-03  0.6676E-04
     -7.922  0.4535E+00  0.1767E-02  0.3237E-02  0.1157E-02  0.6128E-04  0.8230E-04  0.4669E-04  0.2487E-03  0.4640E-04
     -7.847  0.2851E+00  0.8902E-03  0.2735E-02  0.8361E-03  0.3750E-04  0.5463E-04  0.3570E-04  0.1441E-03  0.2872E-04
     -7.771  0.2014E+00  0.5669E-03  0.2124E-02  0.8525E-03  0.2076E-04  0.3840E-04  0.2530E-04  0.9584E-04  0.1610E-04
     -7.696  0.1981E+00  0.9840E-03  0.1434E-02  0.1110E-02  0.1137E-04  0.2781E-04  0.1588E-04  0.9804E-04  0.8065E-05
     -7.621  0.2138E+00  0.1634E-02  0.7818E-03  0.1309E-02  0.6490E-05  0.1933E-04  0.7700E-05  0.1087E-03  0.3674E-05
     -7.545  0.1946E+00  0.1844E-02  0.3143E-03  0.1218E-02  0.3708E-05  0.1286E-04  0.2104E-05  0.9716E-04  0.1654E-05
     -7.470  0.1386E+00  0.1415E-02  0.8410E-04  0.9160E-03  0.1930E-05  0.8633E-05 -0.1932E-06  0.6475E-04  0.7444E-06
     -7.395  0.8991E-01  0.7845E-03  0.4084E-04  0.7091E-03  0.1006E-05  0.6640E-05  0.1443E-07  0.3448E-04  0.3809E-06
     -7.320  0.8399E-01  0.4861E-03  0.9520E-04  0.7694E-03  0.9288E-06  0.6454E-05  0.1346E-05  0.2321E-04  0.5373E-06
     -7.244  0.1109E+00  0.6213E-03  0.1665E-03  0.9581E-03  0.1271E-05  0.6515E-05  0.2714E-05  0.2688E-04  0.1052E-05
     -7.169  0.1353E+00  0.9019E-03  0.2044E-03  0.1043E-02  0.1468E-05  0.5384E-05  0.3614E-05  0.3183E-04  0.1465E-05
     -7.094  0.1358E+00  0.1014E-02  0.2054E-03  0.9458E-03  0.1355E-05  0.3380E-05  0.4467E-05  0.3017E-04  0.1456E-05
     -7.018  0.1175E+00  0.8654E-03  0.2029E-03  0.7419E-03  0.1150E-05  0.1857E-05  0.6339E-05  0.2251E-04  0.1159E-05
     -6.943  0.9893E-01  0.5909E-03  0.2253E-03  0.5525E-03  0.1055E-05  0.1479E-05  0.9820E-05  0.1349E-04  0.9223E-06
     -6.868  0.9398E-01  0.3878E-03  0.2691E-03  0.4570E-03  0.1041E-05  0.1850E-05  0.1448E-04  0.7266E-05  0.8770E-06
     -6.792  0.1006E+00  0.3301E-03  0.3078E-03  0.4398E-03  0.9707E-06  0.2240E-05  0.1898E-04  0.4809E-05  0.8759E-06
     -6.717  0.1040E+00  0.3435E-03  0.3123E-03  0.4116E-03  0.7893E-06  0.2185E-05  0.2129E-04  0.4182E-05  0.7601E-06
     -6.642  0.9259E-01  0.3225E-03  0.2729E-03  0.3179E-03  0.5532E-06  0.1653E-05  0.2012E-04  0.3376E-05  0.5297E-06
     -6.567  0.7090E-01  0.2344E-03  0.2086E-03  0.1980E-03  0.3479E-06  0.9388E-06  0.1669E-04  0.2067E-05  0.2877E-06
     -6.491  0.5143E-01  0.1242E-03  0.1458E-03  0.1154E-03  0.2083E-06  0.3787E-06  0.1341E-04  0.9079E-06  0.1176E-06
     -6.416  0.3877E-01  0.4625E-04  0.9544E-04  0.7921E-04  0.1190E-06  0.9577E-07  0.1089E-04  0.2849E-06  0.3312E-07
     -6.341  0.2826E-01  0.1193E-04  0.5659E-04  0.5782E-04  0.5804E-07  0.8087E-08  0.8141E-05  0.7057E-07  0.3591E-08
     -6.265  0.1665E-01  0.1734E-05  0.2744E-04  0.3236E-04  0.1828E-07 -0.6410E-08  0.4848E-05  0.1184E-07 -0.3402E-08
     -6.190  0.6441E-02 -0.1240E-05  0.8547E-05  0.9343E-05 -0.1473E-08 -0.8046E-08  0.1955E-05 -0.1196E-07 -0.4057E-08
     -6.115  0.6445E-03 -0.2026E-05 -0.3723E-06 -0.2107E-05 -0.6210E-08 -0.7486E-08  0.2866E-06 -0.1918E-07 -0.3008E-08
     -6.040 -0.1073E-02 -0.1521E-05 -0.2453E-05 -0.3723E-05 -0.4277E-08 -0.4843E-08 -0.2560E-06 -0.1389E-07 -0.1605E-08
     -5.964 -0.8952E-03 -0.7157E-06 -0.1743E-05 -0.2019E-05 -0.1766E-08 -0.2131E-08 -0.2460E-06 -0.6302E-08 -0.6140E-09
     -5.889 -0.4145E-03 -0.2286E-06 -0.7648E-06 -0.6714E-06 -0.4989E-09 -0.6533E-09 -0.1219E-06 -0.1950E-08 -0.1689E-09
     -5.814 -0.1346E-03 -0.5145E-07 -0.2385E-06 -0.1532E-06 -0.1005E-09 -0.1428E-09 -0.4155E-07 -0.4278E-09 -0.3369E-10
     -5.738 -0.3236E-04 -0.8343E-08 -0.5488E-07 -0.2496E-07 -0.1470E-10 -0.2265E-10 -0.1034E-07 -0.6790E-10 -0.4912E-11
     -5.663 -0.5840E-05 -0.9967E-09 -0.9450E-08 -0.2988E-08 -0.1589E-11 -0.2650E-11 -0.1912E-08 -0.7943E-11 -0.5361E-12
     -5.588 -0.7923E-06 -0.2985E-09 -0.1836E-08 -0.9171E-09 -0.3576E-12 -0.6552E-12 -0.2636E-09 -0.1844E-11 -0.2893E-12
     -5.512 -0.8074E-07 -0.3664E-08 -0.1088E-07 -0.1145E-07 -0.4415E-11 -0.7764E-11 -0.3144E-10 -0.2065E-10 -0.5095E-11
     -5.437 -0.7114E-08 -0.4745E-07 -0.1394E-06 -0.1496E-06 -0.6412E-10 -0.1061E-09 -0.6411E-10 -0.2751E-09 -0.7884E-10
     -5.362 -0.9904E-08 -0.4630E-06 -0.1357E-05 -0.1473E-05 -0.7136E-09 -0.1101E-08 -0.6683E-09 -0.2775E-08 -0.9144E-09
     -5.287 -0.7148E-07 -0.3389E-05 -0.9888E-05 -0.1088E-04 -0.6049E-08 -0.8649E-08 -0.5449E-08 -0.2108E-07 -0.7907E-08
     -5.211 -0.3992E-06 -0.1847E-04 -0.5354E-04 -0.5988E-04 -0.3875E-07 -0.5118E-07 -0.3344E-07 -0.1200E-06 -0.5067E-07
     -5.136 -0.1642E-05 -0.7391E-04 -0.2119E-03 -0.2417E-03 -0.1851E-06 -0.2261E-06 -0.1527E-06 -0.5048E-06 -0.2390E-06
     -5.061 -0.4820E-05 -0.2097E-03 -0.5903E-03 -0.6920E-03 -0.6450E-06 -0.7311E-06 -0.5088E-06 -0.1529E-05 -0.8208E-06
     -4.985 -0.9269E-05 -0.3834E-03 -0.1039E-02 -0.1282E-02 -0.1567E-05 -0.1649E-05 -0.1188E-05 -0.3099E-05 -0.2019E-05
     -4.910 -0.7720E-05 -0.2684E-03 -0.5890E-03 -0.9581E-03 -0.2325E-05 -0.2193E-05 -0.1713E-05 -0.3083E-05 -0.3398E-05
     -4.835  0.1582E-04  0.7942E-03  0.2630E-02  0.2444E-02 -0.6536E-06  0.1449E-06 -0.4505E-06  0.3839E-05 -0.3026E-05
     -4.760  0.7586E-04  0.3339E-02  0.1005E-01  0.1085E-01  0.6833E-05  0.9118E-05  0.5305E-05  0.2381E-04  0.3457E-05
     -4.684  0.1693E-03  0.7199E-02  0.2096E-01  0.2427E-01  0.2278E-04  0.2766E-04  0.1852E-04  0.5842E-04  0.2469E-04
     -4.609  0.2768E-03  0.1173E-01  0.3264E-01  0.4095E-01  0.4865E-04  0.5639E-04  0.4097E-04  0.1019E-03  0.7270E-04
     -4.534  0.3805E-03  0.1650E-01  0.4186E-01  0.5828E-01  0.8558E-04  0.9288E-04  0.7045E-04  0.1434E-03  0.1515E-03
     -4.458  0.4684E-03  0.2110E-01  0.4608E-01  0.7229E-01  0.1319E-03  0.1294E-03  0.9950E-04  0.1718E-03  0.2438E-03
     -4.383  0.5411E-03  0.2445E-01  0.4494E-01  0.7857E-01  0.1789E-03  0.1520E-03  0.1210E-03  0.1788E-03  0.3217E-03
     -4.308  0.6630E-03  0.2582E-01  0.4121E-01  0.7584E-01  0.2165E-03  0.1488E-03  0.1365E-03  0.1651E-03  0.3736E-03
     -4.232  0.9902E-03  0.2699E-01  0.3899E-01  0.6790E-01  0.2490E-03  0.1229E-03  0.1572E-03  0.1454E-03  0.4116E-03
     -4.157  0.1609E-02  0.3089E-01  0.4074E-01  0.6048E-01  0.2934E-03  0.9352E-04  0.1894E-03  0.1421E-03  0.4474E-03
     -4.082  0.2276E-02  0.3655E-01  0.4522E-01  0.5572E-01  0.3463E-03  0.7926E-04  0.2196E-03  0.1604E-03  0.4678E-03
     -4.007  0.2546E-02  0.3877E-01  0.4787E-01  0.5061E-01  0.3701E-03  0.8121E-04  0.2273E-03  0.1758E-03  0.4417E-03
     -3.931  0.2422E-02  0.3711E-01  0.4526E-01  0.4228E-01  0.3475E-03  0.8665E-04  0.2266E-03  0.1659E-03  0.3650E-03
     -3.856  0.2740E-02  0.4095E-01  0.4088E-01  0.3351E-01  0.3295E-03  0.9253E-04  0.2682E-03  0.1608E-03  0.2936E-03
     -3.781  0.4470E-02  0.5866E-01  0.4384E-01  0.3041E-01  0.3852E-03  0.1181E-03  0.3706E-03  0.2409E-03  0.3027E-03
     -3.705  0.7443E-02  0.8345E-01  0.5875E-01  0.3552E-01  0.5123E-03  0.1812E-03  0.4779E-03  0.4526E-03  0.4084E-03
     -3.630  0.1016E-01  0.9787E-01  0.7864E-01  0.4558E-01  0.6319E-03  0.2711E-03  0.5298E-03  0.7322E-03  0.5490E-03
     -3.555  0.1139E-01  0.9349E-01  0.9238E-01  0.5623E-01  0.6784E-03  0.3713E-03  0.5484E-03  0.9671E-03  0.6485E-03
     -3.479  0.1164E-01  0.8040E-01  0.9850E-01  0.6680E-01  0.6749E-03  0.4885E-03  0.6009E-03  0.1124E-02  0.6910E-03
     -3.404  0.1221E-01  0.7416E-01  0.1048E+00  0.7824E-01  0.6904E-03  0.6141E-03  0.6873E-03  0.1253E-02  0.7215E-03
     -3.329  0.1348E-01  0.7827E-01  0.1136E+00  0.8826E-01  0.7398E-03  0.6993E-03  0.7334E-03  0.1377E-02  0.7702E-03
     -3.254  0.1477E-01  0.8431E-01  0.1164E+00  0.9239E-01  0.7725E-03  0.7285E-03  0.6937E-03  0.1454E-02  0.8022E-03
     -3.178  0.1561E-01  0.8519E-01  0.1070E+00  0.9061E-01  0.7577E-03  0.7607E-03  0.6024E-03  0.1439E-02  0.7742E-03
     -3.103  0.1631E-01  0.8375E-01  0.9170E-01  0.9051E-01  0.7364E-03  0.8500E-03  0.5371E-03  0.1360E-02  0.7349E-03
     -3.028  0.1736E-01  0.9022E-01  0.8340E-01  0.1005E+00  0.7794E-03  0.9892E-03  0.5685E-03  0.1326E-02  0.8234E-03
     -2.952  0.1828E-01  0.1094E+00  0.8828E-01  0.1186E+00  0.8990E-03  0.1135E-02  0.7033E-03  0.1425E-02  0.1110E-02
     -2.877  0.1809E-01  0.1310E+00  0.9957E-01  0.1318E+00  0.1012E-02  0.1226E-02  0.8580E-03  0.1598E-02  0.1445E-02
     -2.802  0.1715E-01  0.1406E+00  0.1061E+00  0.1301E+00  0.1023E-02  0.1209E-02  0.9451E-03  0.1680E-02  0.1581E-02
     -2.727  0.1726E-01  0.1392E+00  0.1046E+00  0.1169E+00  0.9385E-03  0.1132E-02  0.9703E-03  0.1592E-02  0.1462E-02
     -2.651  0.1905E-01  0.1382E+00  0.9952E-01  0.1018E+00  0.8491E-03  0.1147E-02  0.9732E-03  0.1408E-02  0.1263E-02
     -2.576  0.2080E-01  0.1408E+00  0.9367E-01  0.8914E-01  0.8018E-03  0.1334E-02  0.9340E-03  0.1232E-02  0.1141E-02