   30   30   20    1
  0.6786351E+02  0.4330646E-09  0.4330646E-09  0.1253492E-07  0.5000000E-15
  1.000000000000000E-004
  CAR 
 Tetradymite Slab                        
    168     19    128
 
  0.0000000E+00  0.0000000E+00  0.0000000E+00  0.6944444E-02
    1      -12.321942   1.000000
    2      -12.296729   1.000000
    3      -12.271657   1.000000
    4      -12.249310   1.000000
    5      -12.217468   1.000000
    6      -12.208608   1.000000
    7      -11.857168   1.000000
    8      -11.804180   1.000000
    9      -11.747250   1.000000
   10      -11.689948   1.000000
   11      -11.635870   1.000000
   12      -11.616638   1.000000
   13      -10.804181   1.000000
   14      -10.744977   1.000000
   15      -10.682225   1.000000
   16      -10.622586   1.000000
   17      -10.569543   1.000000
   18      -10.552526   1.000000
   19       -8.118047   1.000000
   20       -8.044836   1.000000
   21       -7.954212   1.000000
   22       -7.853398   1.000000
   23       -7.757885   1.000000
   24       -7.709841   1.000000
   25       -6.675356   1.000000
   26       -6.581177   1.000000
   27       -6.477625   1.000000
   28       -6.378536   1.000000
   29       -6.296837   1.000000
   30       -6.260618   1.000000
   31       -2.262974   1.000000
   32       -2.173830   1.000000
   33       -2.052638   1.000000
   34       -1.901058   1.000000
   35       -1.726434   1.000000
   36       -1.528893   1.000000
   37       -1.390068   1.000000
   38       -1.390063   1.000000
   39       -1.374410   1.000000
   40       -1.374407   1.000000
   41       -1.358529   1.000000
   42       -1.358524   1.000000
   43       -1.355777   1.000000
   44       -1.350097   1.000000
   45       -1.350095   1.000000
   46       -1.322490   1.000000
   47       -1.322484   1.000000
   48       -1.313602   1.000000
   49       -1.313590   1.000000
   50       -1.203055   1.000000
   51       -1.203052   1.000000
   52       -1.171442   1.000000
   53       -1.171435   1.000000
   54       -1.162730   1.000000
   55       -1.141979   1.000000
   56       -1.141976   1.000000
   57       -1.117667   1.000000
   58       -1.117662   1.000000
   59       -1.085534   1.000000
   60       -1.085517   1.000000
   61       -1.077257   1.000000
   62       -1.077236   1.000000
   63       -0.979040   1.000000
   64       -0.810598   1.000000
   65       -0.674907   1.000000
   66       -0.626530   1.000000
   67       -0.626530   1.000000
   68       -0.590556   1.000000
   69       -0.590555   1.000000
   70       -0.556052   1.000000
   71       -0.556052   1.000000
   72       -0.527339   1.000000
   73       -0.527338   1.000000
   74       -0.493485   1.000000
   75       -0.493485   1.000000
   76       -0.485016   1.000000
   77       -0.485016   1.000000
   78       -0.404183   1.000000
   79       -0.393754   1.000000
   80        0.050449   1.007091
   81        0.160814   1.028326
   82        0.282070   1.007491
   83        0.404636   0.716257
   84        0.510321   0.285906
   85        0.745059  -0.030366
   86        0.829768  -0.012233
   87        0.926015  -0.002285
   88        1.019225  -0.000263
   89        1.096294  -0.000031
   90        1.108202  -0.000021
   91        1.108204  -0.000021
   92        1.136027  -0.000009
   93        1.158021  -0.000004
   94        1.158030  -0.000004
   95        1.214729  -0.000001
   96        1.214729  -0.000001
   97        1.274867  -0.000000
   98        1.274873  -0.000000
   99        1.333565  -0.000000
  100        1.333566  -0.000000
  101        1.355487  -0.000000
  102        1.355488  -0.000000
  103        2.166555  -0.000000
  104        2.166555  -0.000000
  105        2.227071  -0.000000
  106        2.227075  -0.000000
  107        2.248887  -0.000000
  108        2.276788  -0.000000
  109        2.289768  -0.000000
  110        2.289768  -0.000000
  111        2.300375  -0.000000
  112        2.321477  -0.000000
  113        2.346148  -0.000000
  114        2.348032  -0.000000
  115        2.348035  -0.000000
  116        2.354295  -0.000000
  117        2.398856  -0.000000
  118        2.398858  -0.000000
  119        2.415112  -0.000000
  120        2.415112  -0.000000
  121        4.733443  -0.000000
  122        4.744037  -0.000000
  123        5.181225  -0.000000
  124        5.214329  -0.000000
  125        5.237250  -0.000000
  126        5.242781  -0.000000
  127        5.248263  -0.000000
  128        5.265610  -0.000000
 
  0.8333333E-01 -0.1280653E-16  0.0000000E+00  0.4166667E-01
    1      -12.261649   1.000000
    2      -12.236490   1.000000
    3      -12.211473   1.000000
    4      -12.189189   1.000000
    5      -12.157308   1.000000
    6      -12.148454   1.000000
    7      -11.801667   1.000000
    8      -11.748816   1.000000
    9      -11.692090   1.000000
   10      -11.635053   1.000000
   11      -11.581153   1.000000
   12      -11.562084   1.000000
   13      -10.767604   1.000000
   14      -10.709077   1.000000
   15      -10.647314   1.000000
   16      -10.588870   1.000000
   17      -10.536768   1.000000
   18      -10.520384   1.000000
   19       -8.111367   1.000000
   20       -8.041221   1.000000
   21       -7.955212   1.000000
   22       -7.860113   1.000000
   23       -7.770129   1.000000
   24       -7.726317   1.000000
   25       -6.749120   1.000000
   26       -6.663707   1.000000
   27       -6.571654   1.000000
   28       -6.484779   1.000000
   29       -6.413152   1.000000
   30       -6.383796   1.000000
   31       -2.256878   1.000000
   32       -2.218330   1.000000
   33       -2.184521   1.000000
   34       -2.159433   1.000000
   35       -2.153519   1.000000
   36       -2.071965   1.000000
   37       -2.041001   1.000000
   38       -2.013788   1.000000
   39       -1.985993   1.000000
   40       -1.953448   1.000000
   41       -1.932679   1.000000
   42       -1.634207   1.000000
   43       -1.624450   1.000000
   44       -1.617025   1.000000
   45       -1.596752   1.000000
   46       -1.577226   1.000000
   47       -1.563524   1.000000
   48       -1.535899   1.000000
   49       -1.527311   1.000000
   50       -1.490048   1.000000
   51       -1.405614   1.000000
   52       -1.316850   1.000000
   53       -1.304592   1.000000
   54       -1.266878   1.000000
   55       -1.244225   1.000000
   56       -1.238428   1.000000
   57       -1.230055   1.000000
   58       -1.209257   1.000000
   59       -1.196648   1.000000
   60       -1.187898   1.000000
   61       -1.160254   1.000000
   62       -1.150942   1.000000
   63       -1.131980   1.000000
   64       -1.067983   1.000000
   65       -0.973664   1.000000
   66       -0.850405   1.000000
   67       -0.613748   1.000000
   68       -0.572498   1.000000
   69       -0.533741   1.000000
   70       -0.495905   1.000000
   71       -0.463296   1.000000
   72       -0.454385   1.000000
   73       -0.427509   1.000000
   74       -0.418735   1.000000
   75       -0.287089   1.000001
   76       -0.131201   1.000127
   77       -0.007149   1.002445
   78        0.085711   1.012224
   79        0.095601   1.014019
   80        0.104378   1.015734
   81        0.153402   1.026669
   82        0.230196   1.034152
   83        0.318782   0.958086
   84        0.389446   0.771235
   85        0.880507  -0.005443
   86        0.948697  -0.001415
   87        1.039536  -0.000154
   88        1.145205  -0.000007
   89        1.213379  -0.000001
   90        1.247399  -0.000000
   91        1.264323  -0.000000
   92        1.320689  -0.000000
   93        1.322622  -0.000000
   94        1.336453  -0.000000
   95        1.377968  -0.000000
   96        1.384642  -0.000000
   97        1.416068  -0.000000
   98        1.444983  -0.000000
   99        1.467845  -0.000000
  100        1.472684  -0.000000
  101        1.540829  -0.000000
  102        1.581713  -0.000000
  103        2.210284  -0.000000
  104        2.226066  -0.000000
  105        2.238891  -0.000000
  106        2.254839  -0.000000
  107        2.271767  -0.000000
  108        2.281857  -0.000000
  109        2.294125  -0.000000
  110        2.333561  -0.000000
  111        2.397653  -0.000000
  112        2.457202  -0.000000
  113        2.508886  -0.000000
  114        2.525621  -0.000000
  115        2.627178  -0.000000
  116        2.667785  -0.000000
  117        2.704155  -0.000000
  118        2.733488  -0.000000
  119        2.764474  -0.000000
  120        2.772954  -0.000000
  121        4.806428  -0.000000
  122        4.817015  -0.000000
  123        5.149275  -0.000000
  124        5.178300  -0.000000
  125        5.213403  -0.000000
  126        5.244967  -0.000000
  127        5.301088  -0.000000
  128        5.309713  -0.000000
 
  0.1666667E+00 -0.3227224E-16  0.0000000E+00  0.4166667E-01
    1      -12.083021   1.000000
    2      -12.058046   1.000000
    3      -12.033188   1.000000
    4      -12.011145   1.000000
    5      -11.979152   1.000000
    6      -11.970327   1.000000
    7      -11.638680   1.000000
    8      -11.586310   1.000000
    9      -11.530341   1.000000
   10      -11.474244   1.000000
   11      -11.420991   1.000000
   12      -11.402532   1.000000
   13      -10.665073   1.000000
   14      -10.608781   1.000000
   15      -10.550250   1.000000
   16      -10.495699   1.000000
   17      -10.446544   1.000000
   18      -10.432066   1.000000
   19       -8.110291   1.000000
   20       -8.049677   1.000000
   21       -7.977794   1.000000
   22       -7.900050   1.000000
   23       -7.826313   1.000000
   24       -7.794713   1.000000
   25       -6.983766   1.000000
   26       -6.919845   1.000000
   27       -6.854886   1.000000
   28       -6.796045   1.000000
   29       -6.745727   1.000000
   30       -6.730087   1.000000
   31       -3.005625   1.000000
   32       -2.972814   1.000000
   33       -2.936305   1.000000
   34       -2.895412   1.000000
   35       -2.844815   1.000000
   36       -2.824819   1.000000
   37       -2.645659   1.000000
   38       -2.562028   1.000000
   39       -2.458443   1.000000
   40       -2.332854   1.000000
   41       -2.197758   1.000000
   42       -2.117524   1.000000
   43       -2.081338   1.000000
   44       -2.048169   1.000000
   45       -2.020523   1.000000
   46       -2.012650   1.000000
   47       -1.989543   1.000000
   48       -1.988927   1.000000
   49       -1.976917   1.000000
   50       -1.967241   1.000000
   51       -1.949204   1.000000
   52       -1.920772   1.000000
   53       -1.912279   1.000000
   54       -1.864509   1.000000
   55       -1.815647   1.000000
   56       -1.577255   1.000000
   57       -1.571630   1.000000
   58       -1.532478   1.000000
   59       -1.486348   1.000000
   60       -1.441520   1.000000
   61       -1.397621   1.000000
   62       -1.384306   1.000000
   63       -1.359344   1.000000
   64       -1.151452   1.000000
   65       -0.958806   1.000000
   66       -0.807377   1.000000
   67       -0.568232   1.000000
   68       -0.520330   1.000000
   69       -0.510962   1.000000
   70       -0.485946   1.000000
   71       -0.470959   1.000000
   72       -0.439475   1.000000
   73       -0.424994   1.000000
   74       -0.394651   1.000000
   75       -0.381154   1.000000
   76       -0.369216   1.000000
   77       -0.310857   1.000000
   78       -0.267256   1.000002
   79        0.015763   1.003829
   80        0.096488   1.014187
   81        0.149173   1.025702
   82        0.216066   1.035416
   83        0.326085   0.944504
   84        0.411220   0.691159
   85        1.125924  -0.000012
   86        1.214932  -0.000001
   87        1.318857  -0.000000
   88        1.428025  -0.000000
   89        1.434213  -0.000000
   90        1.491236  -0.000000
   91        1.519248  -0.000000
   92        1.557962  -0.000000
   93        1.572433  -0.000000
   94        1.629697  -0.000000
   95        1.633355  -0.000000
   96        1.698262  -0.000000
   97        1.726476  -0.000000
   98        1.738908  -0.000000
   99        1.860991  -0.000000
  100        1.994407  -0.000000
  101        2.120544  -0.000000
  102        2.200332  -0.000000
  103        2.500322  -0.000000
  104        2.539513  -0.000000
  105        2.542568  -0.000000
  106        2.575371  -0.000000
  107        2.609483  -0.000000
  108        2.615352  -0.000000
  109        2.662728  -0.000000
  110        2.679321  -0.000000
  111        2.689172  -0.000000
  112        2.744279  -0.000000
  113        2.799648  -0.000000
  114        2.818560  -0.000000
  115        3.098706  -0.000000
  116        3.155420  -0.000000
  117        3.216898  -0.000000
  118        3.281294  -0.000000
  119        3.339129  -0.000000
  120        3.364910  -0.000000
  121        4.684599  -0.000000
  122        4.711911  -0.000000
  123        4.733408  -0.000000
  124        4.762374  -0.000000
  125        4.802440  -0.000000
  126        4.829573  -0.000000
  127        5.142669  -0.000000
  128        5.152875  -0.000000
 
  0.2500000E+00 -0.8663557E-17  0.0000000E+00  0.4166667E-01
    1      -11.793856   1.000000
    2      -11.769315   1.000000
    3      -11.744851   1.000000
    4      -11.723387   1.000000
    5      -11.691183   1.000000
    6      -11.682406   1.000000
    7      -11.380598   1.000000
    8      -11.329454   1.000000
    9      -11.275268   1.000000
   10      -11.221381   1.000000
   11      -11.169676   1.000000
   12      -11.152630   1.000000
   13      -10.521008   1.000000
   14      -10.469157   1.000000
   15      -10.416920   1.000000
   16      -10.369913   1.000000
   17      -10.326059   1.000000
   18      -10.314703   1.000000
   19       -8.174783   1.000000
   20       -8.129744   1.000000
   21       -8.080112   1.000000
   22       -8.029362   1.000000
   23       -7.978430   1.000000
   24       -7.962738   1.000000
   25       -7.376890   1.000000
   26       -7.334101   1.000000
   27       -7.293913   1.000000
   28       -7.260610   1.000000
   29       -7.226108   1.000000
   30       -7.217556   1.000000
   31       -3.789893   1.000000
   32       -3.749855   1.000000
   33       -3.702670   1.000000
   34       -3.646846   1.000000
   35       -3.583324   1.000000
   36       -3.553609   1.000000
   37       -3.083873   1.000000
   38       -2.969852   1.000000
   39       -2.843282   1.000000
   40       -2.748919   1.000000
   41       -2.734979   1.000000
   42       -2.715902   1.000000
   43       -2.683006   1.000000
   44       -2.616291   1.000000
   45       -2.525253   1.000000
   46       -2.409851   1.000000
   47       -2.387771   1.000000
   48       -2.363378   1.000000
   49       -2.339729   1.000000
   50       -2.319621   1.000000
   51       -2.290540   1.000000
   52       -2.281969   1.000000
   53       -2.262124   1.000000
   54       -2.120245   1.000000
   55       -1.881959   1.000000
   56       -1.833391   1.000000
   57       -1.824416   1.000000
   58       -1.782046   1.000000
   59       -1.730909   1.000000
   60       -1.698937   1.000000
   61       -1.682250   1.000000
   62       -1.665742   1.000000
   63       -1.578113   1.000000
   64       -1.440806   1.000000
   65       -1.291257   1.000000
   66       -1.128523   1.000000
   67       -1.038908   1.000000
   68       -0.981717   1.000000
   69       -0.934833   1.000000
   70       -0.800758   1.000000
   71       -0.665210   1.000000
   72       -0.627418   1.000000
   73       -0.608798   1.000000
   74       -0.547981   1.000000
   75       -0.503368   1.000000
   76       -0.488835   1.000000
   77       -0.435354   1.000000
   78       -0.417587   1.000000
   79       -0.212874   1.000011
   80       -0.094439   1.000334
   81        0.039857   1.005923
   82        0.173077   1.030884
   83        0.290909   0.998306
   84        0.365859   0.847070
   85        1.095771  -0.000031
   86        1.197136  -0.000001
   87        1.335730  -0.000000
   88        1.500047  -0.000000
   89        1.602115  -0.000000
   90        1.658139  -0.000000
   91        1.671929  -0.000000
   92        1.756640  -0.000000
   93        1.762951  -0.000000
   94        1.849175  -0.000000
   95        1.918488  -0.000000
   96        1.936040  -0.000000
   97        1.977213  -0.000000
   98        2.029938  -0.000000
   99        2.165112  -0.000000
  100        2.317204  -0.000000
  101        2.477062  -0.000000
  102        2.605025  -0.000000
  103        2.858176  -0.000000
  104        2.870902  -0.000000
  105        2.893738  -0.000000
  106        2.931212  -0.000000
  107        2.949419  -0.000000
  108        2.983926  -0.000000
  109        3.032599  -0.000000
  110        3.038076  -0.000000
  111        3.063456  -0.000000
  112        3.110325  -0.000000
  113        3.174823  -0.000000
  114        3.199529  -0.000000
  115        3.581199  -0.000000
  116        3.686080  -0.000000
  117        3.808545  -0.000000
  118        3.933400  -0.000000
  119        4.033318  -0.000000
  120        4.079159  -0.000000
  121        4.242377  -0.000000
  122        4.265044  -0.000000
  123        4.277158  -0.000000
  124        4.295132  -0.000000
  125        4.322564  -0.000000
  126        4.333003  -0.000000
  127        5.383006  -0.000000
  128        5.393042  -0.000000
 
  0.3333333E+00 -0.5559098E-16  0.0000000E+00  0.4166667E-01
    1      -11.411643   1.000000
    2      -11.388061   1.000000
    3      -11.364505   1.000000
    4      -11.344404   1.000000
    5      -11.311830   1.000000
    6      -11.303124   1.000000
    7      -11.056183   1.000000
    8      -11.007923   1.000000
    9      -10.957891   1.000000
   10      -10.909170   1.000000
   11      -10.860843   1.000000
   12      -10.846702   1.000000
   13      -10.387123   1.000000
   14      -10.343266   1.000000
   15      -10.301784   1.000000
   16      -10.267807   1.000000
   17      -10.231352   1.000000
   18      -10.222803   1.000000
   19       -8.392457   1.000000
   20       -8.362374   1.000000
   21       -8.332368   1.000000
   22       -8.305730   1.000000
   23       -8.271209   1.000000
   24       -8.262499   1.000000
   25       -7.832106   1.000000
   26       -7.799343   1.000000
   27       -7.769898   1.000000
   28       -7.747948   1.000000
   29       -7.718558   1.000000
   30       -7.710345   1.000000
   31       -4.343298   1.000000
   32       -4.299925   1.000000
   33       -4.249032   1.000000
   34       -4.190785   1.000000
   35       -4.128439   1.000000
   36       -4.101481   1.000000
   37       -3.485806   1.000000
   38       -3.391766   1.000000
   39       -3.294495   1.000000
   40       -3.218149   1.000000
   41       -3.155629   1.000000
   42       -3.123053   1.000000
   43       -2.881556   1.000000
   44       -2.762983   1.000000
   45       -2.680548   1.000000
   46       -2.655521   1.000000
   47       -2.650284   1.000000
   48       -2.631201   1.000000
   49       -2.610081   1.000000
   50       -2.589603   1.000000
   51       -2.580642   1.000000
   52       -2.571991   1.000000
   53       -2.553692   1.000000
   54       -2.532399   1.000000
   55       -2.135632   1.000000
   56       -2.085184   1.000000
   57       -2.083889   1.000000
   58       -2.031210   1.000000
   59       -1.976915   1.000000
   60       -1.971164   1.000000
   61       -1.925774   1.000000
   62       -1.907512   1.000000
   63       -1.842806   1.000000
   64       -1.729160   1.000000
   65       -1.679450   1.000000
   66       -1.455549   1.000000
   67       -1.407688   1.000000
   68       -1.226296   1.000000
   69       -1.101406   1.000000
   70       -0.920338   1.000000
   71       -0.791457   1.000000
   72       -0.740101   1.000000
   73       -0.729683   1.000000
   74       -0.661388   1.000000
   75       -0.615551   1.000000
   76       -0.593589   1.000000
   77       -0.573796   1.000000
   78       -0.533165   1.000000
   79       -0.510724   1.000000
   80       -0.430250   1.000000
   81       -0.268096   1.000002
   82       -0.109967   1.000224
   83        0.023421   1.004416
   84        0.105631   1.015988
   85        1.137164  -0.000009
   86        1.253611  -0.000000
   87        1.396993  -0.000000
   88        1.554248  -0.000000
   89        1.660717  -0.000000
   90        1.698165  -0.000000
   91        1.724348  -0.000000
   92        1.743713  -0.000000
   93        1.787991  -0.000000
   94        1.847524  -0.000000
   95        1.883230  -0.000000
   96        1.962674  -0.000000
   97        2.070717  -0.000000
   98        2.088642  -0.000000
   99        2.127693  -0.000000
  100        2.325469  -0.000000
  101        2.563614  -0.000000
  102        2.744974  -0.000000
  103        3.053883  -0.000000
  104        3.088088  -0.000000
  105        3.126167  -0.000000
  106        3.140280  -0.000000
  107        3.168700  -0.000000
  108        3.215551  -0.000000
  109        3.236127  -0.000000
  110        3.240113  -0.000000
  111        3.340057  -0.000000
  112        3.438073  -0.000000
  113        3.518027  -0.000000
  114        3.552887  -0.000000
  115        3.863986  -0.000000
  116        3.918521  -0.000000
  117        3.931960  -0.000000
  118        3.948240  -0.000000
  119        3.950738  -0.000000
  120        3.963502  -0.000000
  121        4.001100  -0.000000
  122        4.117830  -0.000000
  123        4.289167  -0.000000
  124        4.475301  -0.000000
  125        4.636938  -0.000000
  126        4.733458  -0.000000
  127        5.361633  -0.000000
  128        5.410989  -0.000000
 
  0.4166667E+00 -0.2820516E-16  0.0000000E+00  0.4166667E-01
    1      -10.975648   1.000000
    2      -10.954329   1.000000
    3      -10.932900   1.000000
    4      -10.915826   1.000000
    5      -10.882118   1.000000
    6      -10.873441   1.000000
    7      -10.732516   1.000000
    8      -10.691068   1.000000
    9      -10.650682   1.000000
   10      -10.614127   1.000000
   11      -10.571983   1.000000
   12      -10.562285   1.000000
   13      -10.359764   1.000000
   14      -10.328657   1.000000
   15      -10.302808   1.000000
   16      -10.288180   1.000000
   17      -10.255678   1.000000
   18      -10.246836   1.000000
   19       -8.727445   1.000000
   20       -8.701635   1.000000
   21       -8.677033   1.000000
   22       -8.656948   1.000000
   23       -8.627901   1.000000
   24       -8.619534   1.000000
   25       -8.189065   1.000000
   26       -8.158967   1.000000
   27       -8.132268   1.000000
   28       -8.112656   1.000000
   29       -8.085262   1.000000
   30       -8.077113   1.000000
   31       -4.666352   1.000000
   32       -4.624733   1.000000
   33       -4.577151   1.000000
   34       -4.524538   1.000000
   35       -4.468996   1.000000
   36       -4.447651   1.000000
   37       -3.672878   1.000000
   38       -3.577296   1.000000
   39       -3.468194   1.000000
   40       -3.360619   1.000000
   41       -3.260131   1.000000
   42       -3.199166   1.000000
   43       -3.072597   1.000000
   44       -3.004034   1.000000
   45       -2.929506   1.000000
   46       -2.887118   1.000000
   47       -2.864196   1.000000
   48       -2.853071   1.000000
   49       -2.838869   1.000000
   50       -2.831125   1.000000
   51       -2.814232   1.000000
   52       -2.792639   1.000000
   53       -2.763029   1.000000
   54       -2.754330   1.000000
   55       -2.342672   1.000000
   56       -2.299354   1.000000
   57       -2.248037   1.000000
   58       -2.226866   1.000000
   59       -2.192838   1.000000
   60       -2.137079   1.000000
   61       -2.085639   1.000000
   62       -2.084773   1.000000
   63       -2.065676   1.000000
   64       -1.910146   1.000000
   65       -1.709903   1.000000
   66       -1.526006   1.000000
   67       -1.415812   1.000000
   68       -1.294841   1.000000
   69       -1.246289   1.000000
   70       -1.112239   1.000000
   71       -0.949960   1.000000
   72       -0.887548   1.000000
   73       -0.822994   1.000000
   74       -0.812022   1.000000
   75       -0.750747   1.000000
   76       -0.704244   1.000000
   77       -0.678353   1.000000
   78       -0.614099   1.000000
   79       -0.589009   1.000000
   80       -0.562903   1.000000
   81       -0.448100   1.000000
   82       -0.349730   1.000000
   83       -0.193845   1.000021
   84       -0.075433   1.000534
   85        1.106868  -0.000022
   86        1.226987  -0.000000
   87        1.372080  -0.000000
   88        1.513682  -0.000000
   89        1.536726  -0.000000
   90        1.653998  -0.000000
   91        1.660135  -0.000000
   92        1.712476  -0.000000
   93        1.733960  -0.000000
   94        1.751464  -0.000000
   95        1.867603  -0.000000
   96        1.969155  -0.000000
   97        1.997643  -0.000000
   98        2.120233  -0.000000
   99        2.188390  -0.000000
  100        2.255845  -0.000000
  101        2.542456  -0.000000
  102        2.763173  -0.000000
  103        3.122000  -0.000000
  104        3.140852  -0.000000
  105        3.170006  -0.000000
  106        3.205450  -0.000000
  107        3.246711  -0.000000
  108        3.271907  -0.000000
  109        3.292467  -0.000000
  110        3.403681  -0.000000
  111        3.526734  -0.000000
  112        3.644026  -0.000000
  113        3.684348  -0.000000
  114        3.723087  -0.000000
  115        3.735269  -0.000000
  116        3.739549  -0.000000
  117        3.756166  -0.000000
  118        3.779158  -0.000000
  119        3.784912  -0.000000
  120        3.801760  -0.000000
  121        4.038974  -0.000000
  122        4.233283  -0.000000
  123        4.470253  -0.000000
  124        4.711941  -0.000000
  125        4.919639  -0.000000
  126        5.054968  -0.000000
  127        5.356798  -0.000000
  128        5.396825  -0.000000
 
  0.5000000E+00 -0.1732711E-16  0.0000000E+00  0.2083333E-01
    1      -10.611406   1.000000
    2      -10.600148   1.000000
    3      -10.592277   1.000000
    4      -10.577062   1.000000
    5      -10.569909   1.000000
    6      -10.532540   1.000000
    7      -10.529400   1.000000
    8      -10.515396   1.000000
    9      -10.509646   1.000000
   10      -10.497585   1.000000
   11      -10.485667   1.000000
   12      -10.482634   1.000000
   13      -10.476082   1.000000
   14      -10.474139   1.000000
   15      -10.467155   1.000000
   16      -10.459208   1.000000
   17      -10.440773   1.000000
   18      -10.431755   1.000000
   19       -8.895277   1.000000
   20       -8.870287   1.000000
   21       -8.846950   1.000000
   22       -8.828459   1.000000
   23       -8.801392   1.000000
   24       -8.793108   1.000000
   25       -8.327363   1.000000
   26       -8.299028   1.000000
   27       -8.274142   1.000000
   28       -8.256221   1.000000
   29       -8.230064   1.000000
   30       -8.221925   1.000000
   31       -4.780037   1.000000
   32       -4.738337   1.000000
   33       -4.691223   1.000000
   34       -4.640138   1.000000
   35       -4.586982   1.000000
   36       -4.567566   1.000000
   37       -3.625585   1.000000
   38       -3.522821   1.000000
   39       -3.397157   1.000000
   40       -3.343713   1.000000
   41       -3.285806   1.000000
   42       -3.269047   1.000000
   43       -3.205160   1.000000
   44       -3.163556   1.000000
   45       -3.100468   1.000000
   46       -3.073815   1.000000
   47       -3.033737   1.000000
   48       -3.019484   1.000000
   49       -2.926600   1.000000
   50       -2.901186   1.000000
   51       -2.876455   1.000000
   52       -2.854720   1.000000
   53       -2.825058   1.000000
   54       -2.816342   1.000000
   55       -2.400735   1.000000
   56       -2.355614   1.000000
   57       -2.304045   1.000000
   58       -2.263691   1.000000
   59       -2.248490   1.000000
   60       -2.192302   1.000000
   61       -2.139656   1.000000
   62       -2.120313   1.000000
   63       -2.094582   1.000000
   64       -1.904963   1.000000
   65       -1.708489   1.000000
   66       -1.552402   1.000000
   67       -1.536372   1.000000
   68       -1.382950   1.000000
   69       -1.195684   1.000000
   70       -1.135842   1.000000
   71       -1.014989   1.000000
   72       -0.983985   1.000000
   73       -0.922653   1.000000
   74       -0.857251   1.000000
   75       -0.783785   1.000000
   76       -0.709972   1.000000
   77       -0.661095   1.000000
   78       -0.644513   1.000000
   79       -0.618583   1.000000
   80       -0.606267   1.000000
   81       -0.590843   1.000000
   82       -0.422752   1.000000
   83       -0.239627   1.000005
   84       -0.114925   1.000196
   85        1.072421  -0.000062
   86        1.192037  -0.000001
   87        1.335323  -0.000000
   88        1.448909  -0.000000
   89        1.479931  -0.000000
   90        1.567236  -0.000000
   91        1.653664  -0.000000
   92        1.712001  -0.000000
   93        1.721030  -0.000000
   94        1.747707  -0.000000
   95        1.867897  -0.000000
   96        1.942619  -0.000000
   97        2.002869  -0.000000
   98        2.130363  -0.000000
   99        2.202341  -0.000000
  100        2.236967  -0.000000
  101        2.536493  -0.000000
  102        2.768848  -0.000000
  103        3.121140  -0.000000
  104        3.131301  -0.000000
  105        3.166346  -0.000000
  106        3.200693  -0.000000
  107        3.244811  -0.000000
  108        3.268406  -0.000000
  109        3.338187  -0.000000
  110        3.455286  -0.000000
  111        3.585835  -0.000000
  112        3.603454  -0.000000
  113        3.649360  -0.000000
  114        3.682085  -0.000000
  115        3.703072  -0.000000
  116        3.710855  -0.000000
  117        3.728065  -0.000000
  118        3.737314  -0.000000
  119        3.812825  -0.000000
  120        3.862593  -0.000000
  121        4.017781  -0.000000