Tetradymite Slab                        
           1
     4.330646    0.000000    0.000000
    -2.165323    3.750449    0.000000
     0.000000    0.000000  125.349205
   Sb   Te
  12  18
Direct configuration=     1
   0.33333300  0.66666700  0.22418168
   0.33333300  0.66666700  0.02581857
   0.00000000  0.00000000  0.05751493
   0.00000000  0.00000000  0.10915182
   0.66666700  0.33333300  0.14084818
   0.66666700  0.33333300  0.19248507
   0.33333300  0.66666700  0.47418168
   0.33333300  0.66666700  0.27581857
   0.00000000  0.00000000  0.30751493
   0.00000000  0.00000000  0.35915182
   0.66666700  0.33333300  0.39084818
   0.66666700  0.33333300  0.44248507
   0.00000000  0.00000000  0.01217755
   0.66666700  0.33333300  0.23782245
   0.00000000  0.00000000  0.20833338
   0.66666700  0.33333300  0.09551080
   0.33333300  0.66666700  0.07115595
   0.66666700  0.33333300  0.04166662
   0.33333300  0.66666700  0.17884430
   0.00000000  0.00000000  0.15448920
   0.33333300  0.66666700  0.12500012
   0.00000000  0.00000000  0.26217755
   0.66666700  0.33333300  0.48782245
   0.00000000  0.00000000  0.45833338
   0.66666700  0.33333300  0.34551080
   0.33333300  0.66666700  0.32115595
   0.66666700  0.33333300  0.29166662
   0.33333300  0.66666700  0.42884430
   0.00000000  0.00000000  0.40448920
   0.33333300  0.66666700  0.37500012
Direct configuration=     2
   0.33333300  0.66666700  0.22418662
   0.33333300  0.66666700  0.02581857
   0.00000000 -0.00000000  0.05751791
   0.00000000 -0.00000000  0.10914202
   0.66666700  0.33333300  0.14085076
   0.66666700  0.33333300  0.19247779
   0.33333300  0.66666700  0.47418168
   0.33333300  0.66666700  0.27581363
  -0.00000000  0.00000000  0.30752221
  -0.00000000  0.00000000  0.35914924
   0.66666700  0.33333300  0.39085798
   0.66666700  0.33333300  0.44248209
   0.00000000 -0.00000000  0.01220891
   0.66666700  0.33333300  0.23782234
   0.00000000  0.00000000  0.20833497
   0.66666700  0.33333300  0.09551316
   0.33333300  0.66666700  0.07115754
   0.66666700  0.33333300  0.04166806
   0.33333300  0.66666700  0.17884503
   0.00000000  0.00000000  0.15448981
   0.33333300  0.66666700  0.12500514
  -0.00000000 -0.00000000  0.26217766
   0.66666700  0.33333300  0.48779109
  -0.00000000  0.00000000  0.45833194
   0.66666700  0.33333300  0.34551019
   0.33333300  0.66666700  0.32115522
   0.66666700  0.33333300  0.29166503
   0.33333300  0.66666700  0.42884271
  -0.00000000  0.00000000  0.40448684
   0.33333300  0.66666700  0.37499511
Direct configuration=     3
   0.33333300  0.66666700  0.22419468
   0.33333300  0.66666700  0.02581857
   0.00000000 -0.00000000  0.05752278
   0.00000000 -0.00000000  0.10912604
   0.66666700  0.33333300  0.14085496
   0.66666700  0.33333300  0.19246590
   0.33333300  0.66666700  0.47418168
   0.33333300  0.66666700  0.27580557
  -0.00000000  0.00000000  0.30753410
  -0.00000000  0.00000000  0.35914504
   0.66666700  0.33333300  0.39087396
   0.66666700  0.33333300  0.44247722
   0.00000000 -0.00000000  0.01226009
   0.66666700  0.33333300  0.23782216
   0.00000000  0.00000000  0.20833756
   0.66666700  0.33333300  0.09551700
   0.33333300  0.66666700  0.07116014
   0.66666700  0.33333300  0.04167040
   0.33333300  0.66666700  0.17884622
   0.00000000  0.00000000  0.15449081
   0.33333300  0.66666700  0.12501332
  -0.00000000 -0.00000000  0.26217784
   0.66666700  0.33333300  0.48773991
  -0.00000000  0.00000000  0.45832960
   0.66666700  0.33333300  0.34550919
   0.33333300  0.66666700  0.32115403
   0.66666700  0.33333300  0.29166244
   0.33333300  0.66666700  0.42884011
  -0.00000000  0.00000000  0.40448300
   0.33333300  0.66666700  0.37498693
Direct configuration=     4
   0.33333300  0.66666700  0.22419825
   0.33333300  0.66666700  0.02581857
   0.00000000 -0.00000000  0.05752494
   0.00000000 -0.00000000  0.10911896
   0.66666700  0.33333300  0.14085682
   0.66666700  0.33333300  0.19246064
   0.33333300  0.66666700  0.47418168
   0.33333300  0.66666700  0.27580200
  -0.00000000  0.00000000  0.30753936
  -0.00000000  0.00000000  0.35914318
   0.66666700  0.33333300  0.39088104
   0.66666700  0.33333300  0.44247506
   0.00000000 -0.00000000  0.01228275
   0.66666700  0.33333300  0.23782208
   0.00000000  0.00000000  0.20833872
   0.66666700  0.33333300  0.09551870
   0.33333300  0.66666700  0.07116129
   0.66666700  0.33333300  0.04167144
   0.33333300  0.66666700  0.17884675
   0.00000000  0.00000000  0.15449126
   0.33333300  0.66666700  0.12501695
  -0.00000000 -0.00000000  0.26217792
   0.66666700  0.33333300  0.48771725
  -0.00000000  0.00000000  0.45832856
   0.66666700  0.33333300  0.34550874
   0.33333300  0.66666700  0.32115350
   0.66666700  0.33333300  0.29166128
   0.33333300  0.66666700  0.42883896
  -0.00000000  0.00000000  0.40448130
   0.33333300  0.66666700  0.37498330
Direct configuration=     5
   0.33333300  0.66666700  0.22419650
   0.33333300  0.66666700  0.02581857
   0.00000000 -0.00000000  0.05752492
   0.00000000 -0.00000000  0.10912519
   0.66666700  0.33333300  0.14085732
   0.66666700  0.33333300  0.19246334
   0.33333300  0.66666700  0.47418168
   0.33333300  0.66666700  0.27580375
  -0.00000000 -0.00000000  0.30753666
  -0.00000000  0.00000000  0.35914268
   0.66666700  0.33333300  0.39087481
   0.66666700  0.33333300  0.44247508
   0.00000000 -0.00000000  0.01229526
   0.66666700  0.33333300  0.23782859
   0.00000000  0.00000000  0.20833893
   0.66666700  0.33333300  0.09550900
   0.33333300  0.66666700  0.07116784
   0.66666700  0.33333300  0.04167703
   0.33333300  0.66666700  0.17883860
   0.00000000  0.00000000  0.15449588
   0.33333300  0.66666700  0.12501659
  -0.00000000 -0.00000000  0.26217141
   0.66666700  0.33333300  0.48770474
  -0.00000000  0.00000000  0.45832297
   0.66666700  0.33333300  0.34550412
   0.33333300  0.66666700  0.32116165
   0.66666700  0.33333300  0.29166107
   0.33333300  0.66666700  0.42883241
  -0.00000000  0.00000000  0.40449100
   0.33333300  0.66666700  0.37498366
