  60  60   1   0
  0.6963547E+02  0.1154188E-08  0.1283696E-08  0.2819962E-08  0.5000000E-15
  1.000000000000000E-004
  CAR 
 Tetradymite Slab                        
      6.53161548    -17.16618975  301     -1.20666246      1.00000000
    -17.166  0.0000E+00  0.0000E+00
    -17.087  0.0000E+00  0.0000E+00
    -17.008  0.0000E+00  0.0000E+00
    -16.929  0.0000E+00  0.0000E+00
    -16.850  0.0000E+00  0.0000E+00
    -16.771 -0.2685E-28 -0.2121E-29
    -16.692 -0.1298E-25 -0.1028E-26
    -16.613 -0.4589E-23 -0.3635E-24
    -16.534 -0.1188E-20 -0.9423E-22
    -16.455 -0.2253E-18 -0.1789E-19
    -16.376 -0.3129E-16 -0.2490E-17
    -16.297 -0.3086E-14 -0.2463E-15
    -16.218 -0.2286E-12 -0.1830E-13
    -16.139 -0.1237E-10 -0.9957E-12
    -16.060 -0.4891E-09 -0.3963E-10
    -15.981 -0.1410E-07 -0.1153E-08
    -15.902 -0.2959E-06 -0.2453E-07
    -15.823 -0.4510E-05 -0.3808E-06
    -15.744 -0.4972E-04 -0.4308E-05
    -15.665 -0.3936E-03 -0.3540E-04
    -15.586 -0.2209E-02 -0.2099E-03
    -15.507 -0.8555E-02 -0.8857E-03
    -15.428 -0.2132E-01 -0.2570E-02
    -15.349 -0.2570E-01 -0.4600E-02
    -15.270  0.2793E-01 -0.2393E-02
    -15.191  0.1950E+00  0.1301E-01
    -15.112  0.4474E+00  0.4835E-01
    -15.033  0.6511E+00  0.9978E-01
    -14.954  0.7213E+00  0.1568E+00
    -14.875  0.7633E+00  0.2171E+00
    -14.796  0.9240E+00  0.2900E+00
    -14.717  0.1134E+01  0.3796E+00
    -14.638  0.1179E+01  0.4727E+00
    -14.559  0.1033E+01  0.5543E+00
    -14.480  0.9436E+00  0.6289E+00
    -14.401  0.1123E+01  0.7176E+00
    -14.322  0.1485E+01  0.8349E+00
    -14.243  0.1745E+01  0.9727E+00
    -14.164  0.1741E+01  0.1110E+01
    -14.085  0.1610E+01  0.1237E+01
    -14.006  0.1587E+01  0.1363E+01
    -13.927  0.1728E+01  0.1499E+01
    -13.848  0.1988E+01  0.1656E+01
    -13.770  0.2374E+01  0.1844E+01
    -13.691  0.2768E+01  0.2063E+01
    -13.612  0.2810E+01  0.2285E+01
    -13.533  0.2334E+01  0.2469E+01
    -13.454  0.1799E+01  0.2611E+01
    -13.375  0.1790E+01  0.2752E+01
    -13.296  0.2112E+01  0.2919E+01
    -13.217  0.1988E+01  0.3076E+01
    -13.138  0.1263E+01  0.3176E+01
    -13.059  0.6650E+00  0.3229E+01
    -12.980  0.7454E+00  0.3287E+01
    -12.901  0.1193E+01  0.3382E+01
    -12.822  0.1357E+01  0.3489E+01
    -12.743  0.1010E+01  0.3569E+01
    -12.664  0.4548E+00  0.3605E+01
    -12.585  0.6841E-01  0.3610E+01
    -12.506 -0.5667E-01  0.3605E+01
    -12.427 -0.4646E-01  0.3602E+01
    -12.348 -0.1786E-01  0.3600E+01
    -12.269 -0.4338E-02  0.3600E+01
    -12.190 -0.7161E-03  0.3600E+01
    -12.111 -0.8276E-04  0.3600E+01
    -12.032 -0.6796E-05  0.3600E+01
    -11.953 -0.3999E-06  0.3600E+01
    -11.874 -0.1696E-07  0.3600E+01
    -11.795 -0.5203E-09  0.3600E+01
    -11.716 -0.1158E-10  0.3600E+01
    -11.637 -0.1874E-12  0.3600E+01
    -11.558 -0.3553E-13  0.3600E+01
    -11.479 -0.2288E-11  0.3600E+01
    -11.400 -0.1148E-09  0.3600E+01
    -11.321 -0.4189E-08  0.3600E+01
    -11.242 -0.1110E-06  0.3600E+01
    -11.163 -0.2127E-05  0.3600E+01
    -11.084 -0.2937E-04  0.3600E+01
    -11.005 -0.2903E-03  0.3600E+01
    -10.926 -0.2030E-02  0.3600E+01
    -10.847 -0.9841E-02  0.3599E+01
    -10.768 -0.3164E-01  0.3597E+01
    -10.689 -0.5930E-01  0.3592E+01
    -10.610 -0.2371E-01  0.3590E+01
    -10.531  0.2006E+00  0.3606E+01
    -10.452  0.6603E+00  0.3658E+01
    -10.373  0.1220E+01  0.3754E+01
    -10.294  0.1688E+01  0.3888E+01
    -10.215  0.1945E+01  0.4041E+01
    -10.136  0.1946E+01  0.4195E+01
    -10.057  0.1787E+01  0.4336E+01
     -9.978  0.1698E+01  0.4470E+01
     -9.899  0.1772E+01  0.4610E+01
     -9.820  0.1879E+01  0.4759E+01
     -9.741  0.1884E+01  0.4908E+01
     -9.662  0.1730E+01  0.5044E+01
     -9.583  0.1432E+01  0.5157E+01
     -9.504  0.1128E+01  0.5246E+01
     -9.425  0.9696E+00  0.5323E+01
     -9.346  0.9293E+00  0.5396E+01
     -9.267  0.8884E+00  0.5467E+01
     -9.188  0.8516E+00  0.5534E+01
     -9.109  0.8906E+00  0.5604E+01
     -9.030  0.9421E+00  0.5679E+01
     -8.951  0.8641E+00  0.5747E+01
     -8.872  0.6824E+00  0.5801E+01
     -8.793  0.5712E+00  0.5846E+01
     -8.714  0.5814E+00  0.5892E+01
     -8.635  0.5829E+00  0.5938E+01
     -8.556  0.4673E+00  0.5975E+01
     -8.477  0.2680E+00  0.5996E+01
     -8.398  0.9064E-01  0.6003E+01
     -8.319 -0.9002E-03  0.6003E+01
     -8.240 -0.2040E-01  0.6001E+01
     -8.161 -0.1248E-01  0.6000E+01
     -8.082 -0.4316E-02  0.6000E+01
     -8.003 -0.9903E-03  0.6000E+01
     -7.924 -0.1582E-03  0.6000E+01
     -7.845 -0.1798E-04  0.6000E+01
     -7.766 -0.1469E-05  0.6000E+01
     -7.687 -0.8686E-07  0.6000E+01
     -7.608 -0.3731E-08  0.6000E+01
     -7.529 -0.1167E-09  0.6000E+01
     -7.450 -0.2665E-11  0.6000E+01
     -7.371 -0.4446E-13  0.6000E+01
     -7.292 -0.6390E-15  0.6000E+01
     -7.213 -0.7889E-14  0.6000E+01
     -7.134 -0.6072E-12  0.6000E+01
     -7.055 -0.3402E-10  0.6000E+01
     -6.976 -0.1386E-08  0.6000E+01
     -6.897 -0.4099E-07  0.6000E+01
     -6.818 -0.8772E-06  0.6000E+01
     -6.739 -0.1353E-04  0.6000E+01
     -6.660 -0.1495E-03  0.6000E+01
     -6.581 -0.1171E-02  0.6000E+01
     -6.502 -0.6393E-02  0.5999E+01
     -6.423 -0.2343E-01  0.5998E+01
     -6.344 -0.5212E-01  0.5993E+01
     -6.265 -0.4102E-01  0.5990E+01
     -6.186  0.1372E+00  0.6001E+01
     -6.107  0.5639E+00  0.6046E+01
     -6.028  0.1074E+01  0.6130E+01
     -5.949  0.1327E+01  0.6235E+01
     -5.870  0.1187E+01  0.6329E+01
     -5.791  0.9222E+00  0.6402E+01
     -5.712  0.9376E+00  0.6476E+01
     -5.633  0.1337E+01  0.6581E+01
     -5.554  0.1823E+01  0.6725E+01
     -5.475  0.2067E+01  0.6889E+01
     -5.396  0.2063E+01  0.7052E+01
     -5.317  0.2051E+01  0.7214E+01
     -5.238  0.2200E+01  0.7387E+01
     -5.159  0.2438E+01  0.7580E+01
     -5.080  0.2529E+01  0.7780E+01
     -5.001  0.2344E+01  0.7965E+01
     -4.922  0.2025E+01  0.8125E+01
     -4.843  0.1812E+01  0.8268E+01
     -4.764  0.1779E+01  0.8408E+01
     -4.685  0.1847E+01  0.8554E+01
     -4.606  0.1931E+01  0.8707E+01
     -4.527  0.2028E+01  0.8867E+01
     -4.448  0.2214E+01  0.9042E+01
     -4.369  0.2518E+01  0.9241E+01
     -4.290  0.2796E+01  0.9462E+01
     -4.211  0.2873E+01  0.9689E+01
     -4.132  0.2778E+01  0.9908E+01
     -4.053  0.2678E+01  0.1012E+02
     -3.974  0.2638E+01  0.1033E+02
     -3.895  0.2616E+01  0.1053E+02
     -3.816  0.2599E+01  0.1074E+02
     -3.737  0.2582E+01  0.1094E+02
     -3.658  0.2528E+01  0.1114E+02
     -3.579  0.2439E+01  0.1134E+02
     -3.500  0.2367E+01  0.1152E+02
     -3.421  0.2329E+01  0.1171E+02
     -3.342  0.2277E+01  0.1189E+02
     -3.263  0.2170E+01  0.1206E+02
     -3.184  0.2039E+01  0.1222E+02
     -3.105  0.1960E+01  0.1237E+02
     -3.026  0.1978E+01  0.1253E+02
     -2.948  0.2057E+01  0.1269E+02
     -2.869  0.2150E+01  0.1286E+02
     -2.790  0.2257E+01  0.1304E+02
     -2.711  0.2364E+01  0.1323E+02
     -2.632  0.2428E+01  0.1342E+02
     -2.553  0.2457E+01  0.1361E+02
     -2.474  0.2491E+01  0.1381E+02
     -2.395  0.2516E+01  0.1401E+02
     -2.316  0.2516E+01  0.1421E+02
     -2.237  0.2541E+01  0.1441E+02
     -2.158  0.2661E+01  0.1462E+02
     -2.079  0.2847E+01  0.1484E+02
     -2.000  0.2977E+01  0.1508E+02
     -1.921  0.2952E+01  0.1531E+02
     -1.842  0.2812E+01  0.1553E+02
     -1.763  0.2697E+01  0.1575E+02
     -1.684  0.2663E+01  0.1596E+02
     -1.605  0.2599E+01  0.1616E+02
     -1.526  0.2411E+01  0.1635E+02
     -1.447  0.2123E+01  0.1652E+02
     -1.368  0.1733E+01  0.1666E+02
     -1.289  0.1192E+01  0.1675E+02
     -1.210  0.5919E+00  0.1680E+02
     -1.131  0.1452E+00  0.1681E+02
     -1.052 -0.5097E-01  0.1681E+02
     -0.973 -0.8802E-01  0.1680E+02
     -0.894 -0.6860E-01  0.1679E+02
     -0.815  0.3596E-01  0.1680E+02
     -0.736  0.3066E+00  0.1682E+02
     -0.657  0.6439E+00  0.1687E+02
     -0.578  0.7717E+00  0.1693E+02
     -0.499  0.6411E+00  0.1698E+02
     -0.420  0.5716E+00  0.1703E+02
     -0.341  0.7553E+00  0.1709E+02
     -0.262  0.9661E+00  0.1716E+02
     -0.183  0.9534E+00  0.1724E+02
     -0.104  0.7839E+00  0.1730E+02
     -0.025  0.7138E+00  0.1736E+02
      0.054  0.9417E+00  0.1743E+02
      0.133  0.1444E+01  0.1755E+02
      0.212  0.1970E+01  0.1770E+02
      0.291  0.2272E+01  0.1788E+02
      0.370  0.2308E+01  0.1806E+02
      0.449  0.2211E+01  0.1824E+02
      0.528  0.2108E+01  0.1841E+02
      0.607  0.2011E+01  0.1856E+02
      0.686  0.1906E+01  0.1871E+02
      0.765  0.1819E+01  0.1886E+02
      0.844  0.1763E+01  0.1900E+02
      0.923  0.1782E+01  0.1914E+02
      1.002  0.1997E+01  0.1930E+02
      1.081  0.2420E+01  0.1949E+02
      1.160  0.2837E+01  0.1971E+02
      1.239  0.3040E+01  0.1995E+02
      1.318  0.3036E+01  0.2019E+02
      1.397  0.2934E+01  0.2042E+02
      1.476  0.2769E+01  0.2064E+02
      1.555  0.2525E+01  0.2084E+02
      1.634  0.2262E+01  0.2102E+02
      1.713  0.2094E+01  0.2119E+02
      1.792  0.2064E+01  0.2135E+02
      1.871  0.2120E+01  0.2152E+02
      1.950  0.2191E+01  0.2169E+02
      2.029  0.2232E+01  0.2187E+02
      2.108  0.2255E+01  0.2204E+02
      2.187  0.2324E+01  0.2223E+02
      2.266  0.2439E+01  0.2242E+02
      2.345  0.2461E+01  0.2261E+02
      2.424  0.2267E+01  0.2279E+02
      2.503  0.1934E+01  0.2295E+02
      2.582  0.1631E+01  0.2307E+02
      2.661  0.1404E+01  0.2319E+02
      2.740  0.1195E+01  0.2328E+02
      2.819  0.1006E+01  0.2336E+02
      2.898  0.9336E+00  0.2343E+02
      2.977  0.1028E+01  0.2351E+02
      3.056  0.1231E+01  0.2361E+02
      3.135  0.1453E+01  0.2373E+02
      3.214  0.1539E+01  0.2385E+02
      3.293  0.1340E+01  0.2395E+02
      3.372  0.9680E+00  0.2403E+02
      3.451  0.7207E+00  0.2409E+02
      3.530  0.7128E+00  0.2414E+02
      3.609  0.8376E+00  0.2421E+02
      3.688  0.1007E+01  0.2429E+02
      3.767  0.1237E+01  0.2439E+02
      3.846  0.1541E+01  0.2451E+02
      3.925  0.1827E+01  0.2465E+02
      4.004  0.1954E+01  0.2481E+02
      4.083  0.1886E+01  0.2496E+02
      4.162  0.1726E+01  0.2509E+02
      4.241  0.1591E+01  0.2522E+02
      4.320  0.1510E+01  0.2534E+02
      4.399  0.1393E+01  0.2545E+02
      4.478  0.1107E+01  0.2554E+02
      4.557  0.6613E+00  0.2559E+02
      4.636  0.2416E+00  0.2561E+02
      4.715  0.9570E-02  0.2561E+02
      4.794 -0.4712E-01  0.2560E+02
      4.873 -0.3118E-01  0.2560E+02
      4.952 -0.1137E-01  0.2560E+02
      5.031 -0.2756E-02  0.2560E+02
      5.110 -0.4683E-03  0.2560E+02
      5.189 -0.5702E-04  0.2560E+02
      5.268 -0.5027E-05  0.2560E+02
      5.347 -0.3226E-06  0.2560E+02
      5.426 -0.1511E-07  0.2560E+02
      5.505 -0.5174E-09  0.2560E+02
      5.584 -0.1296E-10  0.2560E+02
      5.663 -0.2378E-12  0.2560E+02
      5.742 -0.3176E-14  0.2560E+02
      5.821 -0.2108E-16  0.2560E+02
      5.900  0.0000E+00  0.2560E+02
      5.979  0.0000E+00  0.2560E+02
      6.058  0.0000E+00  0.2560E+02
      6.137  0.0000E+00  0.2560E+02
      6.216  0.0000E+00  0.2560E+02
      6.295  0.0000E+00  0.2560E+02
      6.374  0.0000E+00  0.2560E+02
      6.453  0.0000E+00  0.2560E+02
      6.532  0.0000E+00  0.2560E+02
      6.53161548    -17.16618975  301     -1.20666246      1.00000000
    -17.166  0.0000E+00  0.0000E+00  0.0000E+00  0.0000E+00  0.0000E+00  0.0000E+00  0.0000E+00  0.0000E+00  0.0000E+00
    -17.087  0.0000E+00  0.0000E+00  0.0000E+00  0.0000E+00  0.0000E+00  0.0000E+00  0.0000E+00  0.0000E+00  0.0000E+00
    -17.008  0.0000E+00  0.0000E+00  0.0000E+00  0.0000E+00  0.0000E+00  0.0000E+00  0.0000E+00  0.0000E+00  0.0000E+00
    -16.929  0.0000E+00  0.0000E+00  0.0000E+00  0.0000E+00  0.0000E+00  0.0000E+00  0.0000E+00  0.0000E+00  0.0000E+00
    -16.850  0.0000E+00  0.0000E+00  0.0000E+00  0.0000E+00  0.0000E+00  0.0000E+00  0.0000E+00  0.0000E+00  0.0000E+00
    -16.771 -0.1445E-29 -0.1151E-32 -0.3913E-31 -0.1141E-31 -0.8865E-33 -0.8094E-35 -0.8480E-33 -0.2546E-33 -0.1770E-33
    -16.692 -0.6973E-27 -0.5884E-30 -0.1891E-28 -0.5530E-29 -0.4289E-30 -0.4310E-32 -0.4099E-30 -0.1241E-30 -0.8596E-31
    -16.613 -0.2462E-24 -0.2176E-27 -0.6684E-26 -0.1961E-26 -0.1517E-27 -0.1649E-29 -0.1449E-27 -0.4426E-28 -0.3047E-28
    -16.534 -0.6367E-22 -0.5904E-25 -0.1730E-23 -0.5093E-24 -0.3930E-25 -0.4623E-27 -0.3751E-25 -0.1156E-25 -0.7913E-26
    -16.455 -0.1206E-19 -0.1175E-22 -0.3280E-21 -0.9688E-22 -0.7456E-23 -0.9493E-25 -0.7113E-23 -0.2214E-23 -0.1505E-23
    -16.376 -0.1671E-17 -0.1716E-20 -0.4554E-19 -0.1350E-19 -0.1036E-20 -0.1428E-22 -0.9875E-21 -0.3106E-21 -0.2096E-21
    -16.297 -0.1645E-15 -0.1786E-18 -0.4490E-17 -0.1335E-17 -0.1022E-18 -0.1528E-20 -0.9736E-19 -0.3096E-19 -0.2075E-19
    -16.218 -0.1216E-13 -0.1398E-16 -0.3323E-15 -0.9924E-16 -0.7576E-17 -0.1231E-18 -0.7207E-17 -0.2319E-17 -0.1542E-17
    -16.139 -0.6563E-12 -0.8030E-15 -0.1798E-13 -0.5389E-14 -0.4105E-15 -0.7258E-17 -0.3899E-15 -0.1271E-15 -0.8385E-16
    -16.060 -0.2586E-10 -0.3383E-13 -0.7104E-12 -0.2136E-12 -0.1625E-13 -0.3133E-15 -0.1540E-13 -0.5085E-14 -0.3334E-14
    -15.981 -0.7427E-09 -0.1045E-11 -0.2047E-10 -0.6174E-11 -0.4696E-12 -0.9895E-14 -0.4439E-12 -0.1485E-12 -0.9686E-13
    -15.902 -0.1552E-07 -0.2368E-10 -0.4294E-09 -0.1298E-09 -0.9891E-11 -0.2284E-12 -0.9313E-11 -0.3157E-11 -0.2056E-11
    -15.823 -0.2352E-06 -0.3931E-09 -0.6545E-08 -0.1981E-08 -0.1516E-09 -0.3846E-11 -0.1420E-09 -0.4875E-10 -0.3185E-10
    -15.744 -0.2574E-05 -0.4775E-08 -0.7218E-07 -0.2183E-07 -0.1687E-08 -0.4704E-10 -0.1567E-08 -0.5443E-09 -0.3599E-09
    -15.665 -0.2018E-04 -0.4231E-07 -0.5725E-06 -0.1726E-06 -0.1356E-07 -0.4153E-09 -0.1245E-07 -0.4360E-08 -0.2962E-08
    -15.586 -0.1119E-03 -0.2716E-06 -0.3228E-05 -0.9654E-06 -0.7804E-07 -0.2616E-08 -0.7040E-07 -0.2473E-07 -0.1770E-07
    -15.507 -0.4261E-03 -0.1247E-05 -0.1263E-04 -0.3728E-05 -0.3159E-06 -0.1152E-07 -0.2773E-06 -0.9688E-07 -0.7606E-07
    -15.428 -0.1033E-02 -0.3960E-05 -0.3224E-04 -0.9370E-05 -0.8567E-06 -0.3431E-07 -0.7191E-06 -0.2482E-06 -0.2285E-06
    -15.349 -0.1156E-02 -0.7944E-05 -0.4209E-04 -0.1267E-04 -0.1301E-05 -0.6534E-07 -0.9917E-06 -0.3580E-06 -0.4361E-06
    -15.270  0.1629E-02 -0.6328E-05  0.3108E-04  0.1590E-05  0.2425E-06 -0.7764E-07  0.4673E-06 -0.1100E-06 -0.2916E-06
    -15.191  0.9784E-02  0.1558E-04  0.2820E-03  0.4197E-04  0.6909E-05 -0.9645E-07  0.5791E-05  0.4504E-06  0.1120E-05
    -15.112  0.2153E-01  0.6830E-04  0.6965E-03  0.9307E-04  0.1960E-04 -0.2099E-06  0.1497E-04  0.6851E-06  0.4537E-05
    -15.033  0.3028E-01  0.1486E-03  0.1081E-02  0.1863E-03  0.3285E-04  0.7621E-07  0.2437E-04  0.2730E-05  0.9429E-05
    -14.954  0.3253E-01  0.2620E-03  0.1250E-02  0.5268E-03  0.3806E-04  0.2819E-05  0.3092E-04  0.1652E-04  0.1475E-04
    -14.875  0.3444E-01  0.4342E-03  0.1270E-02  0.1356E-02  0.3384E-04  0.1034E-04  0.3688E-04  0.5297E-04  0.2088E-04
    -14.796  0.4392E-01  0.6451E-03  0.1296E-02  0.2464E-02  0.2804E-04  0.2094E-04  0.4449E-04  0.1026E-03  0.2771E-04
    -14.717  0.5694E-01  0.7824E-03  0.1231E-02  0.3096E-02  0.2612E-04  0.2781E-04  0.4787E-04  0.1311E-03  0.3102E-04
    -14.638  0.6057E-01  0.7516E-03  0.8703E-03  0.2791E-02  0.2465E-04  0.2552E-04  0.3955E-04  0.1134E-03  0.2677E-04
    -14.559  0.5078E-01  0.6149E-03  0.3789E-03  0.2132E-02  0.1987E-04  0.1664E-04  0.2366E-04  0.6403E-04  0.1852E-04
    -14.480  0.3882E-01  0.5632E-03  0.4022E-03  0.2104E-02  0.1674E-04  0.9189E-05  0.1473E-04  0.2180E-04  0.1543E-04
    -14.401  0.3766E-01  0.7456E-03  0.1610E-02  0.2831E-02  0.2512E-04  0.8844E-05  0.2443E-04  0.1423E-04  0.2276E-04
    -14.322  0.4878E-01  0.1125E-02  0.3840E-02  0.3538E-02  0.4642E-04  0.1520E-04  0.5043E-04  0.4288E-04  0.3640E-04
    -14.243  0.6219E-01  0.1498E-02  0.5847E-02  0.3630E-02  0.6859E-04  0.2524E-04  0.7647E-04  0.1038E-03  0.4649E-04
    -14.164  0.6497E-01  0.1693E-02  0.6739E-02  0.3144E-02  0.8056E-04  0.4127E-04  0.8719E-04  0.2248E-03  0.4738E-04
    -14.085  0.5458E-01  0.1775E-02  0.7198E-02  0.2455E-02  0.8488E-04  0.7360E-04  0.8216E-04  0.4500E-03  0.4438E-04
    -14.006  0.4435E-01  0.1971E-02  0.7878E-02  0.2210E-02  0.8528E-04  0.1300E-03  0.6924E-04  0.7524E-03  0.4650E-04
    -13.927  0.4816E-01  0.2376E-02  0.7843E-02  0.3020E-02  0.7688E-04  0.2062E-03  0.5330E-04  0.1019E-02  0.5390E-04
    -13.848  0.6479E-01  0.2818E-02  0.6435E-02  0.4783E-02  0.6910E-04  0.2884E-03  0.4250E-04  0.1166E-02  0.6237E-04
    -13.770  0.8276E-01  0.3025E-02  0.5079E-02  0.6459E-02  0.9535E-04  0.3456E-03  0.5190E-04  0.1180E-02  0.7775E-04
    -13.691  0.9051E-01  0.2882E-02  0.5253E-02  0.6688E-02  0.1614E-03  0.3321E-03  0.8182E-04  0.1036E-02  0.1056E-03
    -13.612  0.8098E-01  0.2676E-02  0.6165E-02  0.5117E-02  0.2069E-03  0.2569E-03  0.1043E-03  0.7601E-03  0.1264E-03
    -13.533  0.6106E-01  0.3484E-02  0.6689E-02  0.3319E-02  0.1850E-03  0.2435E-03  0.9929E-04  0.5544E-03  0.1137E-03
    -13.454  0.5160E-01  0.6538E-02  0.7890E-02  0.3511E-02  0.1614E-03  0.4122E-03  0.9300E-04  0.6477E-03  0.7714E-04
    -13.375  0.6094E-01  0.1083E-01  0.1048E-01  0.5776E-02  0.2310E-03  0.6660E-03  0.1187E-03  0.9361E-03  0.5097E-04
    -13.296  0.6945E-01  0.1266E-01  0.1187E-01  0.7437E-02  0.3462E-03  0.7368E-03  0.1526E-03  0.1020E-02  0.4066E-04
    -13.217  0.5665E-01  0.9791E-02  0.9462E-02  0.6192E-02  0.3530E-03  0.5209E-03  0.1390E-03  0.7114E-03  0.2006E-04
    -13.138  0.2882E-01  0.4549E-02  0.4721E-02  0.3017E-02  0.2161E-03  0.2081E-03  0.7595E-04  0.2646E-03 -0.1221E-04
    -13.059  0.6408E-02  0.8206E-03  0.1103E-02  0.7267E-03  0.8394E-04  0.2392E-04  0.3214E-04  0.2644E-04  0.1748E-04
    -12.980 -0.1528E-02  0.1030E-03 -0.5531E-04  0.7970E-03  0.1095E-03  0.1459E-04  0.7755E-04  0.1097E-03  0.2295E-03
    -12.901 -0.1661E-03  0.1354E-02  0.1853E-03  0.2516E-02  0.2838E-03  0.9685E-04  0.2050E-03  0.3969E-03  0.6260E-03
    -12.822  0.2684E-02  0.2668E-02  0.5085E-03  0.3979E-02  0.4370E-03  0.1654E-03  0.3103E-03  0.6309E-03  0.9438E-03
    -12.743  0.3287E-02  0.2680E-02  0.4657E-03  0.3708E-02  0.4073E-03  0.1561E-03  0.2876E-03  0.5923E-03  0.8772E-03
    -12.664  0.1940E-02  0.1536E-02  0.2249E-03  0.2037E-02  0.2245E-03  0.8595E-04  0.1584E-03  0.3286E-03  0.4855E-03
    -12.585  0.4701E-03  0.3835E-03  0.3563E-04  0.4783E-03  0.5307E-04  0.2018E-04  0.3752E-04  0.7887E-04  0.1162E-03
    -12.506 -0.1525E-03 -0.1090E-03 -0.2813E-04 -0.1601E-03 -0.1746E-04 -0.6771E-05 -0.1225E-04 -0.2482E-04 -0.3682E-04
    -12.427 -0.1756E-03 -0.1339E-03 -0.2344E-04 -0.1812E-03 -0.1991E-04 -0.7659E-05 -0.1402E-04 -0.2895E-04 -0.4273E-04
    -12.348 -0.7311E-04 -0.5665E-04 -0.9053E-05 -0.7529E-04 -0.8282E-05 -0.3183E-05 -0.5838E-05 -0.1212E-04 -0.1784E-04
    -12.269 -0.1836E-04 -0.1438E-04 -0.2202E-05 -0.1892E-04 -0.2082E-05 -0.8003E-06 -0.1469E-05 -0.3058E-05 -0.4494E-05
    -12.190 -0.3078E-05 -0.2431E-05 -0.3637E-06 -0.3178E-05 -0.3497E-06 -0.1345E-06 -0.2468E-06 -0.5153E-06 -0.7556E-06
    -12.111 -0.3579E-06 -0.2850E-06 -0.4201E-07 -0.3704E-06 -0.4075E-07 -0.1569E-07 -0.2877E-07 -0.6024E-07 -0.8814E-07
    -12.032 -0.2942E-07 -0.2361E-07 -0.3446E-08 -0.3053E-07 -0.3358E-08 -0.1295E-08 -0.2372E-08 -0.4978E-08 -0.7269E-08
    -11.953 -0.1729E-08 -0.1398E-08 -0.2025E-09 -0.1799E-08 -0.1978E-09 -0.7635E-10 -0.1397E-09 -0.2940E-09 -0.4284E-09
    -11.874 -0.7305E-10 -0.5952E-10 -0.8570E-11 -0.7623E-10 -0.8380E-11 -0.3240E-11 -0.5924E-11 -0.1249E-10 -0.1816E-10
    -11.795 -0.2231E-11 -0.1832E-11 -0.2623E-12 -0.2335E-11 -0.2566E-12 -0.9938E-13 -0.1814E-12 -0.3836E-12 -0.5566E-12
    -11.716 -0.4938E-13 -0.4086E-13 -0.5822E-14 -0.5183E-13 -0.5695E-14 -0.2210E-14 -0.4029E-14 -0.8537E-14 -0.1236E-13
    -11.637 -0.8577E-15 -0.6623E-15 -0.9436E-16 -0.8361E-15 -0.9181E-16 -0.3571E-16 -0.6497E-16 -0.1380E-15 -0.1994E-15
    -11.558 -0.5900E-14 -0.1493E-16 -0.5055E-16 -0.5945E-16 -0.1683E-17 -0.1987E-17 -0.1793E-17 -0.2479E-17 -0.2692E-17
    -11.479 -0.4078E-12 -0.4637E-15 -0.3387E-14 -0.3394E-14 -0.3776E-16 -0.1058E-15 -0.6809E-16 -0.5437E-16 -0.1531E-16
    -11.400 -0.2062E-10 -0.2340E-13 -0.1690E-12 -0.1708E-12 -0.1904E-14 -0.5280E-14 -0.3415E-14 -0.2807E-14 -0.7717E-15
    -11.321 -0.7610E-09 -0.8624E-12 -0.6124E-11 -0.6255E-11 -0.6987E-13 -0.1916E-12 -0.1246E-12 -0.1056E-12 -0.2838E-13
    -11.242 -0.2049E-07 -0.2321E-10 -0.1609E-09 -0.1662E-09 -0.1862E-11 -0.5049E-11 -0.3296E-11 -0.2889E-11 -0.7616E-12
    -11.163 -0.4023E-06 -0.4561E-09 -0.3055E-08 -0.3197E-08 -0.3594E-10 -0.9642E-10 -0.6306E-10 -0.5736E-10 -0.1492E-10
    -11.084 -0.5753E-05 -0.6552E-08 -0.4168E-07 -0.4428E-07 -0.5001E-09 -0.1330E-08 -0.8683E-09 -0.8228E-09 -0.2138E-09
    -11.005 -0.5985E-04 -0.6884E-07 -0.4055E-06 -0.4383E-06 -0.4984E-08 -0.1321E-07 -0.8541E-08 -0.8481E-08 -0.2244E-08
    -10.926 -0.4517E-03 -0.5291E-06 -0.2776E-05 -0.3062E-05 -0.3516E-07 -0.9380E-07 -0.5924E-07 -0.6229E-07 -0.1732E-07
    -10.847 -0.2458E-02 -0.2967E-05 -0.1305E-04 -0.1473E-04 -0.1720E-06 -0.4718E-06 -0.2830E-06 -0.3216E-06 -0.9871E-07
    -10.768 -0.9496E-02 -0.1201E-04 -0.3986E-04 -0.4627E-04 -0.5571E-06 -0.1649E-05 -0.8834E-06 -0.1140E-05 -0.4153E-06
    -10.689 -0.2489E-01 -0.3378E-04 -0.6662E-04 -0.7986E-04 -0.1045E-05 -0.3805E-05 -0.1528E-05 -0.2632E-05 -0.1272E-05
    -10.610 -0.3717E-01 -0.5774E-04  0.1373E-05  0.1435E-05 -0.3756E-06 -0.4671E-05 -0.8086E-07 -0.3335E-05 -0.2653E-05
    -10.531  0.6200E-02 -0.1523E-04  0.3012E-03  0.3845E-03  0.3715E-05  0.2954E-05  0.6819E-05  0.5136E-06 -0.2643E-05
    -10.452  0.1965E+00  0.2342E-03  0.8172E-03  0.1053E-02  0.1176E-04  0.3039E-04  0.1905E-04  0.1376E-04  0.4631E-05
    -10.373  0.5756E+00  0.7861E-03  0.1325E-02  0.1604E-02  0.2042E-04  0.8526E-04  0.3040E-04  0.4346E-04  0.2730E-04
    -10.294  0.1009E+01  0.1480E-02  0.1679E-02  0.1647E-02  0.2577E-04  0.1562E-03  0.3534E-04  0.1006E-03  0.6598E-04
    -10.215  0.1226E+01  0.1907E-02  0.1915E-02  0.1311E-02  0.2836E-04  0.2068E-03  0.3562E-04  0.1861E-03  0.1051E-03
    -10.136  0.1103E+01  0.1801E-02  0.2027E-02  0.1100E-02  0.3364E-04  0.2063E-03  0.3697E-04  0.2748E-03  0.1249E-03
    -10.057  0.8454E+00  0.1389E-02  0.2023E-02  0.1333E-02  0.4737E-04  0.1713E-03  0.4321E-04  0.3386E-03  0.1253E-03
     -9.978  0.7369E+00  0.1101E-02  0.2068E-02  0.1838E-02  0.6691E-04  0.1503E-03  0.5346E-04  0.3892E-03  0.1213E-03
     -9.899  0.7756E+00  0.1029E-02  0.2229E-02  0.2141E-02  0.7982E-04  0.1618E-03  0.6106E-04  0.4574E-03  0.1145E-03
     -9.820  0.7427E+00  0.9554E-03  0.2545E-02  0.1954E-02  0.7931E-04  0.1792E-03  0.5798E-04  0.5250E-03  0.9249E-04
     -9.741  0.5471E+00  0.8213E-03  0.3351E-02  0.1421E-02  0.7323E-04  0.1719E-03  0.4313E-04  0.5188E-03  0.5716E-04
     -9.662  0.3228E+00  0.7980E-03  0.4585E-02  0.9480E-03  0.6836E-04  0.1357E-03  0.2450E-04  0.3971E-03  0.2939E-04
     -9.583  0.2352E+00  0.1001E-02  0.5237E-02  0.8835E-03  0.6030E-04  0.8819E-04  0.1203E-04  0.2189E-03  0.2655E-04
     -9.504  0.2991E+00  0.1401E-02  0.4602E-02  0.1261E-02  0.4795E-04  0.5352E-04  0.9708E-05  0.8763E-04  0.4808E-04
     -9.425  0.3822E+00  0.1876E-02  0.3265E-02  0.1778E-02  0.4066E-04  0.4264E-04  0.1428E-04  0.4178E-04  0.7904E-04
     -9.346  0.3653E+00  0.2207E-02  0.2084E-02  0.2077E-02  0.4286E-04  0.4481E-04  0.1980E-04  0.4326E-04  0.1005E-03
     -9.267  0.2732E+00  0.2217E-02  0.1374E-02  0.2004E-02  0.4667E-04  0.4391E-04  0.2295E-04  0.4765E-04  0.1013E-03
     -9.188  0.2325E+00  0.2009E-02  0.1319E-02  0.1652E-02  0.4463E-04  0.3856E-04  0.2504E-04  0.4474E-04  0.8611E-04
     -9.109  0.3201E+00  0.1860E-02  0.2063E-02  0.1253E-02  0.3848E-04  0.3976E-04  0.2848E-04  0.4350E-04  0.6933E-04
     -9.030  0.4588E+00  0.1780E-02  0.3092E-02  0.9338E-03  0.3189E-04  0.4975E-04  0.3089E-04  0.4520E-04  0.5751E-04
     -8.951  0.4949E+00  0.1509E-02  0.3363E-02  0.6396E-03  0.2711E-04  0.5442E-04  0.2696E-04  0.4050E-04  0.4742E-04
     -8.872  0.3918E+00  0.1060E-02  0.2475E-02  0.3594E-03  0.3082E-04  0.4335E-04  0.1708E-04  0.2653E-04  0.4003E-04
     -8.793  0.2642E+00  0.8131E-03  0.1161E-02  0.2049E-03  0.4771E-04  0.2474E-04  0.8106E-05  0.1251E-04  0.4092E-04
     -8.714  0.2089E+00  0.9588E-03  0.3123E-03  0.2097E-03  0.6702E-04  0.1174E-04  0.4646E-05  0.6199E-05  0.4613E-04
     -8.635  0.2015E+00  0.1213E-02  0.7312E-04  0.2609E-03  0.7046E-04  0.6385E-05  0.4669E-05  0.5680E-05  0.4384E-04
     -8.556  0.1738E+00  0.1184E-02  0.8303E-04  0.2479E-03  0.5321E-04  0.3803E-05  0.4304E-05  0.5485E-05  0.3035E-04
     -8.477  0.1089E+00  0.8032E-03  0.7888E-04  0.1627E-03  0.2745E-04  0.1577E-05  0.2574E-05  0.3608E-05  0.1371E-04
     -8.398  0.4096E-01  0.3311E-03  0.3503E-04  0.6513E-04  0.7694E-05  0.1323E-06  0.7845E-06  0.1328E-05  0.2615E-05
     -8.319  0.1872E-02  0.3425E-04  0.7573E-06  0.6031E-05 -0.1001E-05 -0.3077E-06 -0.9410E-07  0.1568E-07 -0.1311E-05
     -8.240 -0.7880E-02 -0.5072E-04 -0.8333E-05 -0.1053E-04 -0.2251E-05 -0.2365E-06 -0.2231E-06 -0.2831E-06 -0.1355E-05
     -8.161 -0.5182E-02 -0.3683E-04 -0.5367E-05 -0.7576E-05 -0.1216E-05 -0.9883E-07 -0.1174E-06 -0.1754E-06 -0.6099E-06
     -8.082 -0.1844E-02 -0.1357E-04 -0.1890E-05 -0.2812E-05 -0.3951E-06 -0.2786E-07 -0.3668E-07 -0.6041E-07 -0.1759E-06
     -8.003 -0.4296E-03 -0.3225E-05 -0.4363E-06 -0.6751E-06 -0.8703E-07 -0.5597E-08 -0.7739E-08 -0.1374E-07 -0.3521E-07
     -7.924 -0.6928E-04 -0.5270E-06 -0.6973E-07 -0.1115E-06 -0.1351E-07 -0.8160E-09 -0.1150E-08 -0.2173E-08 -0.5034E-08
     -7.845 -0.7919E-05 -0.6085E-07 -0.7903E-08 -0.1301E-07 -0.1501E-08 -0.8687E-10 -0.1227E-09 -0.2445E-09 -0.5207E-09
     -7.766 -0.6496E-06 -0.5032E-08 -0.6431E-09 -0.1086E-08 -0.1206E-09 -0.6767E-11 -0.9478E-11 -0.1979E-10 -0.3921E-10
     -7.687 -0.3851E-07 -0.3004E-09 -0.3785E-10 -0.6538E-10 -0.7031E-11 -0.3860E-12 -0.5328E-12 -0.1160E-11 -0.2157E-11
     -7.608 -0.1658E-08 -0.1301E-10 -0.1618E-11 -0.2852E-11 -0.2986E-12 -0.1612E-13 -0.2186E-13 -0.4947E-13 -0.8687E-13
     -7.529 -0.5194E-10 -0.4098E-12 -0.5041E-13 -0.9041E-13 -0.9252E-14 -0.4929E-15 -0.6553E-15 -0.1537E-14 -0.2563E-14
     -7.450 -0.1187E-11 -0.9413E-14 -0.1146E-14 -0.2088E-14 -0.2094E-15 -0.1104E-16 -0.1437E-16 -0.3489E-16 -0.5542E-16
     -7.371 -0.1982E-13 -0.1579E-15 -0.1906E-16 -0.3520E-16 -0.3468E-17 -0.1811E-18 -0.2312E-18 -0.5790E-18 -0.8798E-18
     -7.292 -0.2537E-15 -0.4434E-17 -0.2701E-17 -0.4310E-17 -0.4322E-19 -0.1102E-19 -0.1680E-19 -0.2018E-19 -0.2032E-19
     -7.213 -0.3333E-16 -0.2474E-15 -0.2583E-15 -0.3949E-15 -0.6034E-19 -0.9531E-18 -0.1495E-17 -0.1317E-17 -0.1097E-17
     -7.134 -0.2626E-14 -0.1905E-13 -0.2035E-13 -0.3026E-13 -0.4713E-17 -0.7596E-16 -0.1175E-15 -0.1007E-15 -0.8456E-16
     -7.055 -0.1506E-12 -0.1068E-11 -0.1168E-11 -0.1689E-11 -0.2688E-15 -0.4409E-14 -0.6719E-14 -0.5609E-14 -0.4747E-14
     -6.976 -0.6286E-11 -0.4356E-10 -0.4872E-10 -0.6856E-10 -0.1117E-13 -0.1863E-12 -0.2795E-12 -0.2271E-12 -0.1938E-12
     -6.897 -0.1906E-09 -0.1289E-08 -0.1476E-08 -0.2019E-08 -0.3378E-12 -0.5725E-11 -0.8445E-11 -0.6668E-11 -0.5744E-11
     -6.818 -0.4189E-08 -0.2758E-07 -0.3238E-07 -0.4301E-07 -0.7416E-11 -0.1276E-09 -0.1848E-09 -0.1416E-09 -0.1232E-09
     -6.739 -0.6658E-07 -0.4249E-06 -0.5128E-06 -0.6597E-06 -0.1178E-09 -0.2057E-08 -0.2921E-08 -0.2167E-08 -0.1904E-08
     -6.660 -0.7618E-06 -0.4679E-05 -0.5826E-05 -0.7234E-05 -0.1349E-08 -0.2389E-07 -0.3316E-07 -0.2372E-07 -0.2108E-07
     -6.581 -0.6232E-05 -0.3639E-04 -0.4708E-04 -0.5608E-04 -0.1106E-07 -0.1986E-06 -0.2684E-06 -0.1838E-06 -0.1654E-06
     -6.502 -0.3603E-04 -0.1956E-03 -0.2662E-03 -0.3010E-03 -0.6409E-07 -0.1168E-05 -0.1528E-05 -0.9903E-06 -0.9030E-06
     -6.423 -0.1437E-03 -0.6949E-03 -0.1019E-02 -0.1070E-02 -0.2568E-06 -0.4753E-05 -0.5949E-05 -0.3566E-05 -0.3302E-05
     -6.344 -0.3712E-03 -0.1432E-02 -0.2418E-02 -0.2227E-02 -0.6747E-06 -0.1262E-04 -0.1474E-04 -0.7713E-05 -0.7282E-05
     -6.265 -0.4854E-03 -0.6606E-03 -0.2339E-02 -0.1150E-02 -0.9752E-06 -0.1756E-04 -0.1717E-04 -0.5400E-05 -0.5398E-05
     -6.186  0.3825E-03  0.5247E-02  0.5301E-02  0.7752E-02  0.6666E-07  0.9275E-05  0.2178E-04  0.2213E-04  0.2037E-04
     -6.107  0.3371E-02  0.1712E-01  0.2563E-01  0.2628E-01  0.3691E-05  0.1081E-03  0.1410E-03  0.8549E-04  0.8037E-04
     -6.028  0.8304E-02  0.2780E-01  0.5192E-01  0.4442E-01  0.9135E-05  0.2789E-03  0.3216E-03  0.1593E-03  0.1485E-03
     -5.949  0.1261E-01  0.2835E-01  0.6578E-01  0.4836E-01  0.1505E-04  0.4424E-03  0.4613E-03  0.1947E-03  0.1748E-03
     -5.870  0.1323E-01  0.2038E-01  0.5621E-01  0.3767E-01  0.2714E-04  0.4943E-03  0.4632E-03  0.1706E-03  0.1456E-03
     -5.791  0.1035E-01  0.1466E-01  0.3454E-01  0.2485E-01  0.6187E-04  0.4179E-03  0.3603E-03  0.1194E-03  0.1124E-03
     -5.712  0.7552E-02  0.1880E-01  0.2290E-01  0.1971E-01  0.1304E-03  0.3130E-03  0.2984E-03  0.9642E-04  0.1426E-03
     -5.633  0.7365E-02  0.3129E-01  0.2995E-01  0.2292E-01  0.2151E-03  0.2957E-03  0.3660E-03  0.1252E-03  0.2353E-03
     -5.554  0.8568E-02  0.4442E-01  0.4472E-01  0.3071E-01  0.2812E-03  0.3958E-03  0.4995E-03  0.1809E-03  0.3116E-03
     -5.475  0.9029E-02  0.5160E-01  0.5400E-01  0.3934E-01  0.3213E-03  0.5558E-03  0.5863E-03  0.2380E-03  0.3171E-03
     -5.396  0.8819E-02  0.5456E-01  0.5736E-01  0.4598E-01  0.3700E-03  0.7217E-03  0.5902E-03  0.3246E-03  0.3016E-03
     -5.317  0.9135E-02  0.6195E-01  0.6378E-01  0.4949E-01  0.4622E-03  0.9444E-03  0.5620E-03  0.5161E-03  0.3586E-03
     -5.238  0.1014E-01  0.7805E-01  0.8172E-01  0.5182E-01  0.5874E-03  0.1351E-02  0.5766E-03  0.8584E-03  0.5134E-03
     -5.159  0.1102E-01  0.9515E-01  0.1106E+00  0.5569E-01  0.6968E-03  0.1913E-02  0.6468E-03  0.1260E-02  0.6971E-03
     -5.080  0.1117E-01  0.1024E+00  0.1345E+00  0.6021E-01  0.7592E-03  0.2305E-02  0.6935E-03  0.1484E-02  0.8148E-03
     -5.001  0.1085E-01  0.1000E+00  0.1331E+00  0.6267E-01  0.7901E-03  0.2202E-02  0.6497E-03  0.1358E-02  0.8360E-03
     -4.922  0.1108E-01  0.9677E-01  0.1061E+00  0.6416E-01  0.8016E-03  0.1714E-02  0.5557E-03  0.9907E-03  0.8049E-03
     -4.843  0.1225E-01  0.9458E-01  0.7606E-01  0.6762E-01  0.7666E-03  0.1260E-02  0.4925E-03  0.6523E-03  0.7562E-03