   60   60   20    1
  0.6963547E+02  0.1154188E-08  0.1283696E-08  0.2819962E-08  0.5000000E-15
  1.000000000000000E-004
  CAR 
 Tetradymite Slab                        
    336     18    256
 
  0.0000000E+00  0.0000000E+00  0.0000000E+00  0.2500000E-01
    1      -15.166184   1.000000
    2      -14.950641   1.000000
    3      -14.756248   1.000000
    4      -14.753754   1.000000
    5      -14.607147   1.000000
    6      -14.547325   1.000000
    7      -14.492064   1.000000
    8      -14.348484   1.000000
    9      -14.345338   1.000000
   10      -14.303558   1.000000
   11      -14.185885   1.000000
   12      -14.167433   1.000000
   13      -14.108042   1.000000
   14      -14.017925   1.000000
   15      -13.917186   1.000000
   16      -13.915328   1.000000
   17      -13.861033   1.000000
   18      -13.851269   1.000000
   19      -13.736255   1.000000
   20      -13.702472   1.000000
   21      -13.661209   1.000000
   22      -13.653557   1.000000
   23      -13.609240   1.000000
   24      -13.607848   1.000000
   25      -13.573272   1.000000
   26      -13.550578   1.000000
   27      -13.392055   1.000000
   28      -13.331459   1.000000
   29      -13.323304   1.000000
   30      -13.285577   1.000000
   31      -13.258405   1.000000
   32      -13.240323   1.000000
   33      -12.939685   1.000000
   34      -12.925834   1.000000
   35      -12.824370   1.000000
   36      -12.805069   1.000000
   37      -10.434761   1.000000
   38      -10.427670   1.000000
   39      -10.359265   1.000000
   40      -10.222627   1.000000
   41      -10.188596   1.000000
   42      -10.130275   1.000000
   43      -10.031039   1.000000
   44       -9.996520   1.000000
   45       -9.982476   1.000000
   46       -9.925079   1.000000
   47       -9.898479   1.000000
   48       -9.746864   1.000000
   49       -9.725119   1.000000
   50       -9.722484   1.000000
   51       -9.638661   1.000000
   52       -9.592023   1.000000
   53       -9.530294   1.000000
   54       -9.456362   1.000000
   55       -9.439077   1.000000
   56       -9.390596   1.000000
   57       -9.033199   1.000000
   58       -8.922055   1.000000
   59       -8.719507   1.000000
   60       -8.531000   1.000000
   61       -6.048256   1.000000
   62       -6.041216   1.000000
   63       -5.987028   1.000000
   64       -5.918098   1.000000
   65       -5.812872   1.000000
   66       -5.612860   1.000000
   67       -5.542946   1.000000
   68       -5.509153   1.000000
   69       -5.454107   1.000000
   70       -5.414289   1.000000
   71       -5.367454   1.000000
   72       -5.311435   1.000000
   73       -5.265751   1.000000
   74       -5.224509   1.000000
   75       -5.200221   1.000000
   76       -5.143945   1.000000
   77       -5.126705   1.000000
   78       -5.076163   1.000000
   79       -5.026784   1.000000
   80       -5.023430   1.000000
   81       -4.912488   1.000000
   82       -4.885817   1.000000
   83       -4.845835   1.000000
   84       -4.820253   1.000000
   85       -4.761512   1.000000
   86       -4.739565   1.000000
   87       -4.736421   1.000000
   88       -4.634537   1.000000
   89       -4.528552   1.000000
   90       -4.523235   1.000000
   91       -4.415546   1.000000
   92       -4.412940   1.000000
   93       -4.352403   1.000000
   94       -4.339608   1.000000
   95       -4.278016   1.000000
   96       -4.266413   1.000000
   97       -4.244571   1.000000
   98       -4.231134   1.000000
   99       -4.205757   1.000000
  100       -4.172482   1.000000
  101       -4.157424   1.000000
  102       -4.027549   1.000000
  103       -4.008157   1.000000
  104       -3.968589   1.000000
  105       -3.921655   1.000000
  106       -3.822451   1.000000
  107       -3.818135   1.000000
  108       -3.790847   1.000000
  109       -3.790323   1.000000
  110       -3.745860   1.000000
  111       -3.699421   1.000000
  112       -3.655765   1.000000
  113       -3.608967   1.000000
  114       -3.588044   1.000000
  115       -3.581631   1.000000
  116       -3.481117   1.000000
  117       -3.428633   1.000000
  118       -3.421644   1.000000
  119       -3.331697   1.000000
  120       -3.283781   1.000000
  121       -3.209183   1.000000
  122       -3.207042   1.000000
  123       -3.114093   1.000000
  124       -3.082912   1.000000
  125       -3.003536   1.000000
  126       -2.953623   1.000000
  127       -2.944268   1.000000
  128       -2.930692   1.000000
  129       -2.891412   1.000000
  130       -2.838690   1.000000
  131       -2.801998   1.000000
  132       -2.781773   1.000000
  133       -2.734300   1.000000
  134       -2.628187   1.000000
  135       -2.605466   1.000000
  136       -2.556035   1.000000
  137       -2.548820   1.000000
  138       -2.522932   1.000000
  139       -2.505161   1.000000
  140       -2.398839   1.000000
  141       -2.396534   1.000000
  142       -2.383293   1.000000
  143       -2.355559   1.000000
  144       -2.328642   1.000000
  145       -2.288358   1.000000
  146       -2.180203   1.000000
  147       -2.148185   1.000000
  148       -2.082299   1.000000
  149       -2.050246   1.000000
  150       -2.025575   1.000000
  151       -1.953801   1.000001
  152       -1.941076   1.000001
  153       -1.919918   1.000003
  154       -1.915080   1.000003
  155       -1.886257   1.000008
  156       -1.844487   1.000031
  157       -1.780619   1.000190
  158       -1.753861   1.000378
  159       -1.737879   1.000561
  160       -1.700256   1.001335
  161       -1.681872   1.001979
  162       -1.658698   1.003159
  163       -1.613437   1.007155
  164       -1.547723   1.018317
  165       -1.502296   1.028613
  166       -1.368007   0.991747
  167       -1.301376   0.855237
  168       -1.289158   0.818318
  169       -0.640872  -0.000235
  170       -0.605392  -0.000090
  171       -0.365584  -0.000000
  172       -0.278620  -0.000000
  173       -0.121693  -0.000000
  174        0.077560  -0.000000
  175        0.082514  -0.000000
  176        0.138330  -0.000000
  177        0.173962  -0.000000
  178        0.197335  -0.000000
  179        0.265525  -0.000000
  180        0.326263  -0.000000
  181        0.357612  -0.000000
  182        0.383362  -0.000000
  183        0.431489  -0.000000
  184        0.525760  -0.000000
  185        0.538966  -0.000000
  186        0.579977  -0.000000
  187        0.663475  -0.000000
  188        0.724579  -0.000000
  189        0.796661  -0.000000
  190        0.798628  -0.000000
  191        0.850338  -0.000000
  192        0.916396  -0.000000
  193        1.011479  -0.000000
  194        1.021931  -0.000000
  195        1.028992  -0.000000
  196        1.052414  -0.000000
  197        1.120021  -0.000000
  198        1.192904  -0.000000
  199        1.215324  -0.000000
  200        1.227091  -0.000000
  201        1.256371  -0.000000
  202        1.296237  -0.000000
  203        1.314287  -0.000000
  204        1.386229  -0.000000
  205        1.403899  -0.000000
  206        1.454865  -0.000000
  207        1.459429  -0.000000
  208        1.501988  -0.000000
  209        1.563411  -0.000000
  210        1.571649  -0.000000
  211        1.656188  -0.000000
  212        1.678029  -0.000000
  213        1.776197  -0.000000
  214        1.815383  -0.000000
  215        1.861815  -0.000000
  216        1.905684  -0.000000
  217        1.911456  -0.000000
  218        1.947703  -0.000000
  219        2.003030  -0.000000
  220        2.016271  -0.000000
  221        2.123668  -0.000000
  222        2.182859  -0.000000
  223        2.223030  -0.000000
  224        2.288238  -0.000000
  225        2.294523  -0.000000
  226        2.332593  -0.000000
  227        2.339870  -0.000000
  228        2.399598  -0.000000
  229        2.422212  -0.000000
  230        2.429775  -0.000000
  231        2.618999  -0.000000
  232        2.640180  -0.000000
  233        2.644546  -0.000000
  234        2.855016  -0.000000
  235        2.951236  -0.000000
  236        2.994318  -0.000000
  237        3.160234  -0.000000
  238        3.198842  -0.000000
  239        3.218872  -0.000000
  240        3.250340  -0.000000
  241        3.336382  -0.000000
  242        3.386716  -0.000000
  243        3.720890  -0.000000
  244        3.820954  -0.000000
  245        3.849488  -0.000000
  246        3.887130  -0.000000
  247        3.904859  -0.000000
  248        4.014616  -0.000000
  249        4.113731  -0.000000
  250        4.122296  -0.000000
  251        4.150962  -0.000000
  252        4.184765  -0.000000
  253        4.300792   0.000000
  254        4.367029   0.000000
  255        4.421433   0.000000
  256        4.531615   0.000000
 
  0.2000000E+00  0.4952590E-32  0.0000000E+00  0.5000000E-01
    1      -15.142474   1.000000
    2      -14.947106   1.000000
    3      -14.768640   1.000000
    4      -14.736586   1.000000
    5      -14.731343   1.000000
    6      -14.553564   1.000000
    7      -14.406138   1.000000
    8      -14.363803   1.000000
    9      -14.302600   1.000000
   10      -14.288457   1.000000
   11      -14.230731   1.000000
   12      -14.189373   1.000000
   13      -14.061795   1.000000
   14      -14.034503   1.000000
   15      -13.938916   1.000000
   16      -13.869584   1.000000
   17      -13.852286   1.000000
   18      -13.814664   1.000000
   19      -13.764644   1.000000
   20      -13.719097   1.000000
   21      -13.694418   1.000000
   22      -13.652958   1.000000
   23      -13.618376   1.000000
   24      -13.601610   1.000000
   25      -13.560658   1.000000
   26      -13.536947   1.000000
   27      -13.398561   1.000000
   28      -13.321809   1.000000
   29      -13.310248   1.000000
   30      -13.281185   1.000000
   31      -13.261408   1.000000
   32      -13.241913   1.000000
   33      -12.947663   1.000000
   34      -12.929111   1.000000
   35      -12.829281   1.000000
   36      -12.812004   1.000000
   37      -10.421904   1.000000
   38      -10.410220   1.000000
   39      -10.347957   1.000000
   40      -10.243795   1.000000
   41      -10.187606   1.000000
   42      -10.134552   1.000000
   43      -10.091099   1.000000
   44      -10.055332   1.000000
   45       -9.979942   1.000000
   46       -9.889967   1.000000
   47       -9.868448   1.000000
   48       -9.827108   1.000000
   49       -9.784626   1.000000
   50       -9.736663   1.000000
   51       -9.641565   1.000000
   52       -9.615319   1.000000
   53       -9.497660   1.000000
   54       -9.405648   1.000000
   55       -9.342523   1.000000
   56       -9.205485   1.000000
   57       -9.068140   1.000000
   58       -8.947119   1.000000
   59       -8.769233   1.000000
   60       -8.570103   1.000000
   61       -6.064235   1.000000
   62       -6.050426   1.000000
   63       -5.942034   1.000000
   64       -5.877909   1.000000
   65       -5.781230   1.000000
   66       -5.610260   1.000000
   67       -5.573341   1.000000
   68       -5.504614   1.000000
   69       -5.477281   1.000000
   70       -5.433677   1.000000
   71       -5.391180   1.000000
   72       -5.360133   1.000000
   73       -5.290433   1.000000
   74       -5.270297   1.000000
   75       -5.212274   1.000000
   76       -5.150751   1.000000
   77       -5.135601   1.000000
   78       -5.084327   1.000000
   79       -5.069639   1.000000
   80       -5.042396   1.000000
   81       -4.964002   1.000000
   82       -4.855274   1.000000
   83       -4.795767   1.000000
   84       -4.766799   1.000000
   85       -4.740727   1.000000
   86       -4.720221   1.000000
   87       -4.707717   1.000000
   88       -4.626557   1.000000
   89       -4.547185   1.000000
   90       -4.520291   1.000000
   91       -4.459412   1.000000
   92       -4.412387   1.000000
   93       -4.349239   1.000000
   94       -4.303578   1.000000
   95       -4.272613   1.000000
   96       -4.266545   1.000000
   97       -4.243514   1.000000
   98       -4.217025   1.000000
   99       -4.152418   1.000000
  100       -4.098303   1.000000
  101       -4.074169   1.000000
  102       -4.037865   1.000000
  103       -4.010876   1.000000
  104       -3.992053   1.000000
  105       -3.955017   1.000000
  106       -3.912464   1.000000
  107       -3.859855   1.000000
  108       -3.778498   1.000000
  109       -3.753175   1.000000
  110       -3.687070   1.000000
  111       -3.649214   1.000000
  112       -3.601923   1.000000
  113       -3.575238   1.000000
  114       -3.563441   1.000000
  115       -3.518273   1.000000
  116       -3.481217   1.000000
  117       -3.463680   1.000000
  118       -3.402851   1.000000
  119       -3.392199   1.000000
  120       -3.357166   1.000000
  121       -3.255498   1.000000
  122       -3.202276   1.000000
  123       -3.168315   1.000000
  124       -3.104248   1.000000
  125       -3.037293   1.000000
  126       -2.970975   1.000000
  127       -2.936468   1.000000
  128       -2.913368   1.000000
  129       -2.835006   1.000000
  130       -2.813852   1.000000
  131       -2.802764   1.000000
  132       -2.773982   1.000000
  133       -2.729809   1.000000
  134       -2.678370   1.000000
  135       -2.644348   1.000000
  136       -2.595076   1.000000
  137       -2.560820   1.000000
  138       -2.536639   1.000000
  139       -2.518662   1.000000
  140       -2.442072   1.000000
  141       -2.405473   1.000000
  142       -2.331970   1.000000
  143       -2.322317   1.000000
  144       -2.286937   1.000000
  145       -2.251255   1.000000
  146       -2.220254   1.000000
  147       -2.153419   1.000000
  148       -2.081397   1.000000
  149       -2.066864   1.000000
  150       -2.028272   1.000000
  151       -1.988792   1.000000
  152       -1.967898   1.000001
  153       -1.915037   1.000003
  154       -1.891154   1.000007
  155       -1.860201   1.000019
  156       -1.836917   1.000039
  157       -1.789605   1.000149
  158       -1.781527   1.000185
  159       -1.742320   1.000503
  160       -1.700527   1.001327
  161       -1.669943   1.002528
  162       -1.644140   1.004167
  163       -1.574962   1.012888
  164       -1.519843   1.024644
  165       -1.478109   1.033214
  166       -1.373267   0.998020
  167       -1.346105   0.958897
  168       -1.287697   0.813669
  169       -0.641974  -0.000242
  170       -0.616091  -0.000121
  171       -0.363912  -0.000000
  172       -0.318317  -0.000000
  173       -0.178384  -0.000000
  174        0.016926  -0.000000
  175        0.146382  -0.000000
  176        0.171616  -0.000000
  177        0.189536  -0.000000
  178        0.231537  -0.000000
  179        0.247977  -0.000000
  180        0.319935  -0.000000
  181        0.344244  -0.000000
  182        0.368198  -0.000000
  183        0.422882  -0.000000
  184        0.502649  -0.000000
  185        0.550369  -0.000000
  186        0.588092  -0.000000
  187        0.625708  -0.000000
  188        0.755703  -0.000000
  189        0.790793  -0.000000
  190        0.817402  -0.000000
  191        0.855541  -0.000000
  192        0.968698  -0.000000
  193        0.982890  -0.000000
  194        1.024999  -0.000000
  195        1.042706  -0.000000
  196        1.105201  -0.000000
  197        1.108651  -0.000000
  198        1.144500  -0.000000
  199        1.172173  -0.000000
  200        1.192173  -0.000000
  201        1.262533  -0.000000
  202        1.321224  -0.000000
  203        1.343263  -0.000000
  204        1.390618  -0.000000
  205        1.435476  -0.000000
  206        1.448041  -0.000000
  207        1.494599  -0.000000
  208        1.538114  -0.000000
  209        1.549599  -0.000000
  210        1.604232  -0.000000
  211        1.635182  -0.000000
  212        1.670002  -0.000000
  213        1.724819  -0.000000
  214        1.788926  -0.000000
  215        1.866458  -0.000000
  216        1.897095  -0.000000
  217        1.944716  -0.000000
  218        1.986754  -0.000000
  219        2.020981  -0.000000
  220        2.073647  -0.000000
  221        2.075542  -0.000000
  222        2.184313  -0.000000
  223        2.208153  -0.000000
  224        2.275463  -0.000000
  225        2.291626  -0.000000
  226        2.316812  -0.000000
  227        2.330786  -0.000000
  228        2.377417  -0.000000
  229        2.454409  -0.000000
  230        2.505146  -0.000000
  231        2.588605  -0.000000
  232        2.662452  -0.000000
  233        2.722703  -0.000000
  234        2.781211  -0.000000
  235        2.960225  -0.000000
  236        2.969548  -0.000000
  237        3.146163  -0.000000
  238        3.198642  -0.000000
  239        3.216276  -0.000000
  240        3.249577  -0.000000
  241        3.349501  -0.000000
  242        3.397242  -0.000000
  243        3.711189  -0.000000
  244        3.786152  -0.000000
  245        3.840223  -0.000000
  246        3.877172  -0.000000
  247        3.953437  -0.000000
  248        4.024919  -0.000000
  249        4.052128  -0.000000
  250        4.146391  -0.000000
  251        4.156934  -0.000000
  252        4.197230  -0.000000
  253        4.291468   0.000000
  254        4.328589   0.000000
  255        4.372116   0.000000
  256        4.434579   0.000000
 
  0.4000000E+00  0.9905180E-32  0.0000000E+00  0.5000000E-01
    1      -15.078847   1.000000
    2      -14.967968   1.000000
    3      -14.844282   1.000000
    4      -14.786701   1.000000
    5      -14.681187   1.000000
    6      -14.586541   1.000000
    7      -14.429825   1.000000
    8      -14.384213   1.000000
    9      -14.270076   1.000000
   10      -14.229344   1.000000
   11      -14.213107   1.000000
   12      -14.162139   1.000000
   13      -14.077150   1.000000
   14      -14.008335   1.000000
   15      -13.975816   1.000000
   16      -13.876336   1.000000
   17      -13.824375   1.000000
   18      -13.777493   1.000000
   19      -13.769586   1.000000
   20      -13.754155   1.000000
   21      -13.699986   1.000000
   22      -13.643303   1.000000
   23      -13.633977   1.000000
   24      -13.613062   1.000000
   25      -13.559696   1.000000
   26      -13.520749   1.000000
   27      -13.407947   1.000000
   28      -13.305285   1.000000
   29      -13.296217   1.000000
   30      -13.265915   1.000000
   31      -13.264724   1.000000
   32      -13.248393   1.000000
   33      -12.955487   1.000000
   34      -12.939629   1.000000
   35      -12.835277   1.000000
   36      -12.825877   1.000000
   37      -10.390317   1.000000
   38      -10.375712   1.000000
   39      -10.312998   1.000000
   40      -10.269161   1.000000
   41      -10.198367   1.000000
   42      -10.157931   1.000000
   43      -10.141381   1.000000
   44      -10.133583   1.000000
   45      -10.019434   1.000000
   46       -9.942855   1.000000
   47       -9.890698   1.000000
   48       -9.886003   1.000000
   49       -9.745417   1.000000
   50       -9.724648   1.000000
   51       -9.651872   1.000000
   52       -9.641523   1.000000
   53       -9.373372   1.000000
   54       -9.269301   1.000000
   55       -9.213264   1.000000
   56       -9.110878   1.000000
   57       -9.064994   1.000000
   58       -9.021831   1.000000
   59       -8.819294   1.000000
   60       -8.683896   1.000000
   61       -6.071160   1.000000
   62       -6.055972   1.000000
   63       -5.875377   1.000000
   64       -5.834434   1.000000
   65       -5.677436   1.000000
   66       -5.624005   1.000000
   67       -5.581446   1.000000
   68       -5.569620   1.000000
   69       -5.538293   1.000000
   70       -5.435726   1.000000
   71       -5.410777   1.000000
   72       -5.397386   1.000000
   73       -5.327408   1.000000
   74       -5.309014   1.000000
   75       -5.281779   1.000000
   76       -5.236864   1.000000
   77       -5.184027   1.000000
   78       -5.110649   1.000000
   79       -5.057253   1.000000
   80       -5.042081   1.000000
   81       -4.980458   1.000000
   82       -4.893473   1.000000
   83       -4.838194   1.000000
   84       -4.796279   1.000000
   85       -4.685604   1.000000
   86       -4.644918   1.000000
   87       -4.605839   1.000000
   88       -4.572281   1.000000
   89       -4.506202   1.000000
   90       -4.479516   1.000000
   91       -4.409873   1.000000
   92       -4.383019   1.000000
   93       -4.380556   1.000000
   94       -4.339823   1.000000
   95       -4.284460   1.000000
   96       -4.264388   1.000000
   97       -4.220670   1.000000
   98       -4.184732   1.000000
   99       -4.089921   1.000000
  100       -4.055706   1.000000
  101       -4.027723   1.000000
  102       -4.010655   1.000000
  103       -3.983495   1.000000
  104       -3.930670   1.000000
  105       -3.894460   1.000000
  106       -3.870651   1.000000
  107       -3.809261   1.000000
  108       -3.797938   1.000000
  109       -3.755125   1.000000
  110       -3.734761   1.000000
  111       -3.696007   1.000000
  112       -3.690772   1.000000
  113       -3.635404   1.000000
  114       -3.601115   1.000000
  115       -3.574503   1.000000
  116       -3.541975   1.000000
  117       -3.414288   1.000000
  118       -3.366238   1.000000
  119       -3.353594   1.000000
  120       -3.325205   1.000000
  121       -3.281076   1.000000
  122       -3.257685   1.000000
  123       -3.196712   1.000000
  124       -3.126867   1.000000
  125       -3.059304   1.000000
  126       -2.991172   1.000000
  127       -2.976674   1.000000
  128       -2.893072   1.000000
  129       -2.849984   1.000000
  130       -2.773178   1.000000
  131       -2.757118   1.000000
  132       -2.744742   1.000000
  133       -2.718434   1.000000
  134       -2.703289   1.000000
  135       -2.659507   1.000000
  136       -2.622523   1.000000
  137       -2.545437   1.000000
  138       -2.490659   1.000000
  139       -2.473554   1.000000
  140       -2.438034   1.000000
  141       -2.398662   1.000000
  142       -2.360142   1.000000
  143       -2.333263   1.000000
  144       -2.276736   1.000000
  145       -2.242741   1.000000
  146       -2.181258   1.000000
  147       -2.170429   1.000000
  148       -2.103341   1.000000
  149       -2.080089   1.000000
  150       -2.037133   1.000000
  151       -2.007739   1.000000
  152       -1.990562   1.000000
  153       -1.954332   1.000001
  154       -1.928284   1.000002
  155       -1.885061   1.000009
  156       -1.850358   1.000026
  157       -1.842732   1.000033
  158       -1.769315   1.000255
  159       -1.745195   1.000469
  160       -1.712648   1.001012
  161       -1.672896   1.002381
  162       -1.633875   1.005026
  163       -1.563180   1.015110
  164       -1.528744   1.022585
  165       -1.426533   1.032603
  166       -1.381645   1.006809
  167       -1.351898   0.968682
  168       -1.267129   0.743352
  169       -0.622684  -0.000145
  170       -0.616946  -0.000124
  171       -0.329319  -0.000000
  172       -0.314190  -0.000000
  173       -0.219514  -0.000000
  174       -0.093531  -0.000000
  175        0.099430  -0.000000
  176        0.150619  -0.000000
  177        0.216071  -0.000000
  178        0.271892  -0.000000
  179        0.289257  -0.000000
  180        0.318659  -0.000000
  181        0.375207  -0.000000
  182        0.408135  -0.000000
  183        0.465419  -0.000000
  184        0.522415  -0.000000
  185        0.548871  -0.000000
  186        0.588422  -0.000000
  187        0.620951  -0.000000
  188        0.681759  -0.000000
  189        0.803859  -0.000000
  190        0.807686  -0.000000
  191        0.871762  -0.000000
  192        0.901864  -0.000000
  193        0.995700  -0.000000
  194        1.029522  -0.000000
  195        1.050043  -0.000000
  196        1.085500  -0.000000
  197        1.118801  -0.000000
  198        1.167984  -0.000000
  199        1.177872  -0.000000
  200        1.211533  -0.000000
  201        1.228224  -0.000000
  202        1.276289  -0.000000
  203        1.313118  -0.000000
  204        1.326513  -0.000000
  205        1.408960  -0.000000
  206        1.473183  -0.000000
  207        1.478335  -0.000000
  208        1.508301  -0.000000
  209        1.565286  -0.000000
  210        1.585486  -0.000000
  211        1.714508  -0.000000
  212        1.735270  -0.000000
  213        1.746187  -0.000000
  214        1.817864  -0.000000
  215        1.853158  -0.000000
  216        1.897848  -0.000000
  217        1.968643  -0.000000
  218        2.030307  -0.000000
  219        2.073259  -0.000000
  220        2.118569  -0.000000
  221        2.162728  -0.000000
  222        2.187100  -0.000000
  223        2.211075  -0.000000
  224        2.258862  -0.000000
  225        2.296844  -0.000000
  226        2.328635  -0.000000
  227        2.363712  -0.000000
  228        2.401220  -0.000000
  229        2.461889  -0.000000
  230        2.519358  -0.000000
  231        2.562199  -0.000000
  232        2.626022  -0.000000
  233        2.709538  -0.000000
  234        2.762502  -0.000000
  235        2.940984  -0.000000
  236        2.963347  -0.000000
  237        3.093453  -0.000000
  238        3.142687  -0.000000
  239        3.200215  -0.000000
  240        3.217878  -0.000000
  241        3.468151  -0.000000
  242        3.517252  -0.000000
  243        3.643271  -0.000000
  244        3.692868  -0.000000
  245        3.759479  -0.000000
  246        3.827933  -0.000000
  247        3.945074  -0.000000
  248        4.055173  -0.000000
  249        4.071762  -0.000000
  250        4.136192  -0.000000
  251        4.166299  -0.000000
  252        4.235291  -0.000000
  253        4.329439   0.000000
  254        4.384872   0.000000
  255        4.420569   0.000000
  256        4.451104   0.000000
 
  0.0000000E+00  0.2500000E+00  0.0000000E+00  0.5000000E-01
    1      -15.144237   1.000000
    2      -15.000748   1.000000
    3      -14.735483   1.000000
    4      -14.716415   1.000000
    5      -14.619079   1.000000
    6      -14.594127   1.000000
    7      -14.468168   1.000000
    8      -14.365181   1.000000
    9      -14.318700   1.000000
   10      -14.297247   1.000000
   11      -14.205390   1.000000
   12      -14.194528   1.000000
   13      -14.074991   1.000000
   14      -13.987406   1.000000
   15      -13.932308   1.000000
   16      -13.921552   1.000000
   17      -13.870354   1.000000
   18      -13.853928   1.000000
   19      -13.728743   1.000000
   20      -13.696374   1.000000
   21      -13.664845   1.000000
   22      -13.655927   1.000000
   23      -13.614970   1.000000
   24      -13.610251   1.000000
   25      -13.567161   1.000000
   26      -13.551862   1.000000
   27      -13.384548   1.000000
   28      -13.340859   1.000000
   29      -13.307399   1.000000
   30      -13.278733   1.000000
   31      -13.263144   1.000000
   32      -13.246692   1.000000
   33      -12.941848   1.000000
   34      -12.931959   1.000000
   35      -12.822248   1.000000
   36      -12.808445   1.000000
   37      -10.437399   1.000000
   38      -10.434352   1.000000
   39      -10.336705   1.000000
   40      -10.231328   1.000000
   41      -10.193369   1.000000
   42      -10.182686   1.000000
   43      -10.025528   1.000000
   44      -10.000719   1.000000
   45       -9.926144   1.000000
   46       -9.918181   1.000000
   47       -9.871647   1.000000
   48       -9.748358   1.000000
   49       -9.741764   1.000000
   50       -9.724363   1.000000
   51       -9.631603   1.000000
   52       -9.600117   1.000000
   53       -9.532683   1.000000
   54       -9.482420   1.000000
   55       -9.442834   1.000000
   56       -9.410000   1.000000
   57       -9.007897   1.000000
   58       -8.930869   1.000000
   59       -8.677326   1.000000
   60       -8.546443   1.000000
   61       -6.052607   1.000000
   62       -6.047470   1.000000
   63       -5.979090   1.000000
   64       -5.928661   1.000000
   65       -5.782484   1.000000
   66       -5.632889   1.000000
   67       -5.550274   1.000000
   68       -5.518613   1.000000
   69       -5.459621   1.000000
   70       -5.400696   1.000000
   71       -5.370974   1.000000
   72       -5.257286   1.000000
   73       -5.232588   1.000000
   74       -5.214632   1.000000
   75       -5.194882   1.000000
   76       -5.135224   1.000000
   77       -5.108198   1.000000
   78       -5.083631   1.000000
   79       -5.009894   1.000000
   80       -5.005634   1.000000
   81       -4.927442   1.000000
   82       -4.926597   1.000000
   83       -4.866851   1.000000
   84       -4.830646   1.000000
   85       -4.802278   1.000000
   86       -4.736681   1.000000
   87       -4.730961   1.000000
   88       -4.627920   1.000000
   89       -4.609306   1.000000
   90       -4.507043   1.000000
   91       -4.428110   1.000000
   92       -4.406448   1.000000
   93       -4.370952   1.000000
   94       -4.336639   1.000000
   95       -4.306958   1.000000
   96       -4.273049   1.000000
   97       -4.261717   1.000000
   98       -4.239906   1.000000
   99       -4.190513   1.000000
  100       -4.155987   1.000000
  101       -4.137599   1.000000
  102       -4.069382   1.000000
  103       -4.015995   1.000000
  104       -3.953579   1.000000
  105       -3.894909   1.000000
  106       -3.876790   1.000000
  107       -3.847882   1.000000
  108       -3.789658   1.000000
  109       -3.788562   1.000000
  110       -3.748169   1.000000
  111       -3.674222   1.000000
  112       -3.647940   1.000000
  113       -3.620280   1.000000
  114       -3.566847   1.000000
  115       -3.529342   1.000000
  116       -3.483836   1.000000
  117       -3.440819   1.000000
  118       -3.391185   1.000000
  119       -3.361011   1.000000
  120       -3.299257   1.000000
  121       -3.246384   1.000000
  122       -3.190045   1.000000
  123       -3.095889   1.000000
  124       -3.083986   1.000000
  125       -3.037800   1.000000
  126       -2.979632   1.000000
  127       -2.976719   1.000000