Tetradymite Slab                        
           1
    11.541877    0.000000    0.000000
     0.000000   12.836956    0.000000
     0.000000    0.000000   28.199624
   Sb   Se
  24  36
Direct configuration=     1
   0.03641712  0.13800016  0.10714286
   0.96358288  0.86199984  0.03571429
   0.53641712  0.36199984  0.03571429
   0.46358288  0.63800016  0.10714286
   0.33168058  0.03561961  0.03571429
   0.66831942  0.96438039  0.10714286
   0.83168058  0.46438039  0.10714286
   0.16831942  0.53561961  0.03571429
   0.03641712  0.13800016  0.25000000
   0.96358288  0.86199984  0.17857143
   0.53641712  0.36199984  0.17857143
   0.46358288  0.63800016  0.25000000
   0.33168058  0.03561961  0.17857143
   0.66831942  0.96438039  0.25000000
   0.83168058  0.46438039  0.25000000
   0.16831942  0.53561961  0.17857143
   0.03641712  0.13800016  0.39285714
   0.96358288  0.86199984  0.32142857
   0.53641712  0.36199984  0.32142857
   0.46358288  0.63800016  0.39285714
   0.33168058  0.03561961  0.32142857
   0.66831942  0.96438039  0.39285714
   0.83168058  0.46438039  0.39285714
   0.16831942  0.53561961  0.32142857
   0.13291546  0.95294821  0.10714286
   0.86708454  0.04705179  0.03571429
   0.63291546  0.54705179  0.03571429
   0.36708454  0.45294821  0.10714286
   0.19089847  0.20414490  0.03571429
   0.80910153  0.79585510  0.10714286
   0.69089847  0.29585510  0.10714286
   0.30910153  0.70414490  0.03571429
   0.04754547  0.62758864  0.10714286
   0.95245453  0.37241136  0.03571429
   0.54754547  0.87241136  0.03571429
   0.45245453  0.12758864  0.10714286
   0.13291546  0.95294821  0.25000000
   0.86708454  0.04705179  0.17857143
   0.63291546  0.54705179  0.17857143
   0.36708454  0.45294821  0.25000000
   0.19089847  0.20414490  0.17857143
   0.80910153  0.79585510  0.25000000
   0.69089847  0.29585510  0.25000000
   0.30910153  0.70414490  0.17857143
   0.04754547  0.62758864  0.25000000
   0.95245453  0.37241136  0.17857143
   0.54754547  0.87241136  0.17857143
   0.45245453  0.12758864  0.25000000
   0.13291546  0.95294821  0.39285714
   0.86708454  0.04705179  0.32142857
   0.63291546  0.54705179  0.32142857
   0.36708454  0.45294821  0.39285714
   0.19089847  0.20414490  0.32142857
   0.80910153  0.79585510  0.39285714
   0.69089847  0.29585510  0.39285714
   0.30910153  0.70414490  0.32142857
   0.04754547  0.62758864  0.39285714
   0.95245453  0.37241136  0.32142857
   0.54754547  0.87241136  0.32142857
   0.45245453  0.12758864  0.39285714
Direct configuration=     2
   0.03641712  0.13800016  0.10714286
   0.96358288  0.86199984  0.03571429
   0.53641712  0.36199984  0.03571429
   0.46358288  0.63800016  0.10714286
   0.33168058  0.03561961  0.03571429
   0.66831942  0.96438039  0.10714286
   0.83168058  0.46438039  0.10714286
   0.16831942  0.53561961  0.03571429
   0.03641712  0.13800016  0.25000000
   0.96358288  0.86199984  0.17857143
   0.53641712  0.36199984  0.17857143
   0.46358288  0.63800016  0.25000000
   0.33168058  0.03561961  0.17857143
   0.66831942  0.96438039  0.25000000
   0.83168058  0.46438039  0.25000000
   0.16831942  0.53561961  0.17857143
   0.03641712  0.13800016  0.39285714
   0.96358288  0.86199984  0.32142857
   0.53641712  0.36199984  0.32142857
   0.46358288  0.63800016  0.39285714
   0.33437982  0.03543148  0.32356545
   0.66937449  0.96320373  0.39108370
   0.83062551  0.46320373  0.39108370
   0.16562018  0.53543148  0.32356545
   0.13407478  0.94987134  0.10601216
   0.86914102  0.04383631  0.03549985
   0.63085898  0.54383631  0.03549985
   0.36592522  0.44987134  0.10601216
   0.19121650  0.20253210  0.03573508
   0.81125825  0.79482042  0.10650184
   0.68874175  0.29482042  0.10650184
   0.30878350  0.70253210  0.03573508
   0.04836330  0.62610390  0.10678266
   0.95190952  0.37446654  0.03706940
   0.54809048  0.87446654  0.03706940
   0.45163670  0.12610390  0.10678266
   0.13212698  0.95267795  0.24978389
   0.86787303  0.04732205  0.17878794
   0.63212697  0.54732205  0.17878794
   0.36787302  0.45267795  0.24978389
   0.19053600  0.20374520  0.17859310
   0.80946393  0.79625491  0.24997874
   0.69053607  0.29625491  0.24997874
   0.30946400  0.70374520  0.17859310
   0.04783510  0.62760960  0.24944726
   0.95216494  0.37239046  0.17912452
   0.54783506  0.87239046  0.17912452
   0.45216490  0.12760960  0.24944726
   0.13085914  0.95616376  0.39307117
   0.86592508  0.05012859  0.32255932
   0.63407492  0.55012859  0.32255932
   0.36914086  0.45616376  0.39307117
   0.18874195  0.20517923  0.32206967
   0.80878340  0.79746818  0.39283593
   0.69121660  0.29746818  0.39283593
   0.31125805  0.70517923  0.32206967
   0.04809063  0.62553365  0.39150164
   0.95163652  0.37389588  0.32178882
   0.54836348  0.87389588  0.32178882
   0.45190937  0.12553365  0.39150164
Direct configuration=     3
   0.03641712  0.13800016  0.10714286
   0.96358288  0.86199984  0.03571429
   0.53641712  0.36199984  0.03571429
   0.46358288  0.63800016  0.10714286
   0.33168058  0.03561961  0.03571429
   0.66831942  0.96438039  0.10714286
   0.83168058  0.46438039  0.10714286
   0.16831942  0.53561961  0.03571429
   0.03641712  0.13800016  0.25000000
   0.96358288  0.86199984  0.17857143
   0.53641712  0.36199984  0.17857143
   0.46358288  0.63800016  0.25000000
   0.33168058  0.03561961  0.17857143
   0.66831942  0.96438039  0.25000000
   0.83168058  0.46438039  0.25000000
   0.16831942  0.53561961  0.17857143
   0.03641712  0.13800016  0.39285714
   0.96358288  0.86199984  0.32142857
   0.53641712  0.36199984  0.32142857
   0.46358288  0.63800016  0.39285714
   0.33931392  0.03508760  0.32747157
   0.67130311  0.96105284  0.38784192
   0.82869689  0.46105284  0.38784192
   0.16068608  0.53508760  0.32747157
   0.13619397  0.94424694  0.10394529
   0.87290018  0.03795855  0.03510787
   0.62709982  0.53795855  0.03510787
   0.36380603  0.44424694  0.10394529
   0.19179786  0.19958397  0.03577310
   0.81520063  0.79292909  0.10533009
   0.68479937  0.29292909  0.10533009
   0.30820214  0.69958397  0.03577310
   0.04985824  0.62338986  0.10612423
   0.95091329  0.37822333  0.03954649
   0.54908671  0.87822333  0.03954649
   0.45014176  0.12338986  0.10612423
   0.13068566  0.95218392  0.24938884
   0.86931436  0.04781607  0.17918371
   0.63068564  0.54781607  0.17918371
   0.36931434  0.45218392  0.24938884
   0.18987342  0.20301457  0.17863272
   0.81012637  0.79698575  0.24993989
   0.68987363  0.29698575  0.24993989
   0.31012658  0.70301457  0.17863272
   0.04836452  0.62764790  0.24843688
   0.95163560  0.37235224  0.18013556
   0.54836440  0.87235224  0.18013556
   0.45163548  0.12764790  0.24843688
   0.12710026  0.96204165  0.39346241
   0.86380566  0.05575286  0.32462628
   0.63619434  0.55575286  0.32462628
   0.37289974  0.46204165  0.39346241
   0.18479993  0.20706994  0.32324156
   0.80820188  0.80041682  0.39279716
   0.69179812  0.30041682  0.39279716
   0.31520007  0.70706994  0.32324156
   0.04908715  0.62177721  0.38902385
   0.95014124  0.37660953  0.32244734
   0.54985876  0.87660953  0.32244734
   0.45091285  0.12177721  0.38902385
Direct configuration=     4
   0.03641712  0.13800016  0.10714286
   0.96358288  0.86199984  0.03571429
   0.53641712  0.36199984  0.03571429
   0.46358288  0.63800016  0.10714286
   0.33168058  0.03561961  0.03571429
   0.66831942  0.96438039  0.10714286
   0.83168058  0.46438039  0.10714286
   0.16831942  0.53561961  0.03571429
   0.03641712  0.13800016  0.25000000
   0.96358288  0.86199984  0.17857143
   0.53641712  0.36199984  0.17857143
   0.46358288  0.63800016  0.25000000
   0.33168058  0.03561961  0.17857143
   0.66831942  0.96438039  0.25000000
   0.83168058  0.46438039  0.25000000
   0.16831942  0.53561961  0.17857143
   0.03641712  0.13800016  0.39285714
   0.96358288  0.86199984  0.32142857
   0.53641712  0.36199984  0.32142857
   0.46358288  0.63800016  0.39285714
   0.33813879  0.03332190  0.32748914
   0.67632850  0.96244936  0.38679971
   0.82367150  0.46244936  0.38679971
   0.16186121  0.53332190  0.32748914
   0.13724477  0.94203071  0.10225446
   0.87355534  0.03749112  0.03453087
   0.62644466  0.53749112  0.03453087
   0.36275523  0.44203071  0.10225446
   0.19155932  0.19768513  0.03578070
   0.81697452  0.79178302  0.10474153
   0.68302548  0.29178302  0.10474153
   0.30844068  0.69768513  0.03578070
   0.05018079  0.62167230  0.10601274
   0.95110700  0.38005606  0.04102567
   0.54889300  0.88005606  0.04102567
   0.44981921  0.12167230  0.10601274
   0.12900917  0.95170560  0.24942457
   0.87056431  0.04834927  0.17932455
   0.62943569  0.54834927  0.17932455
   0.37099083  0.45170560  0.24942457
   0.18899480  0.20267015  0.17857501
   0.81097220  0.79719390  0.25008836
   0.68902780  0.29719390  0.25008836
   0.31100520  0.70267015  0.17857501
   0.04906711  0.62719925  0.24784070
   0.95109864  0.37220630  0.18077661
   0.54890136  0.87220630  0.18077661
   0.45093289  0.12719925  0.24784070
   0.12630789  0.96243437  0.39414144
   0.86251064  0.05773962  0.32617584
   0.63748936  0.55773962  0.32617584
   0.37369211  0.46243437  0.39414144
   0.18270922  0.20760950  0.32389343
   0.80889164  0.80142468  0.39267403
   0.69110836  0.30142468  0.39267403
   0.31729078  0.70760950  0.32389343
   0.04593298  0.62323554  0.38977881
   0.95165898  0.37622892  0.32137224
   0.54834102  0.87622892  0.32137224
   0.45406702  0.12323554  0.38977881
Direct configuration=     5
   0.03641712  0.13800016  0.10714286
   0.96358288  0.86199984  0.03571429
   0.53641712  0.36199984  0.03571429
   0.46358288  0.63800016  0.10714286
   0.33168058  0.03561961  0.03571429
   0.66831942  0.96438039  0.10714286
   0.83168058  0.46438039  0.10714286
   0.16831942  0.53561961  0.03571429
   0.03641712  0.13800016  0.25000000
   0.96358288  0.86199984  0.17857143
   0.53641712  0.36199984  0.17857143
   0.46358288  0.63800016  0.25000000
   0.33168058  0.03561961  0.17857143
   0.66831942  0.96438039  0.25000000
   0.83168058  0.46438039  0.25000000
   0.16831942  0.53561961  0.17857143
   0.03641712  0.13800016  0.39285714
   0.96358288  0.86199984  0.32142857
   0.53641712  0.36199984  0.32142857
   0.46358288  0.63800016  0.39285714
   0.33704986  0.03168571  0.32750543
   0.68098530  0.96374344  0.38583395
   0.81901470  0.46374344  0.38583395
   0.16295014  0.53168571  0.32750543
   0.13821849  0.93997704  0.10068764
   0.87416245  0.03705798  0.03399619
   0.62583755  0.53705798  0.03399619
   0.36178151  0.43997704  0.10068764
   0.19133827  0.19592556  0.03578774
   0.81861829  0.79072101  0.10419613
   0.68138171  0.29072101  0.10419613
   0.30866173  0.69592556  0.03578774
   0.05047969  0.62008072  0.10590943
   0.95128651  0.38175437  0.04239635
   0.54871349  0.88175437  0.04239635
   0.44952031  0.12008072  0.10590943
   0.12745564  0.95126236  0.24945768
   0.87172258  0.04884336  0.17945507
   0.62827742  0.54884336  0.17945507
   0.37254436  0.45126236  0.24945768
   0.18818062  0.20235100  0.17852155
   0.81175600  0.79738679  0.25022594
   0.68824400  0.29738679  0.25022594
   0.31181938  0.70235100  0.17852155
   0.04971817  0.62678350  0.24728825
   0.95060106  0.37207106  0.18137064
   0.54939894  0.87207106  0.18137064
   0.45028183  0.12678350  0.24728825
   0.12557364  0.96279828  0.39477066
   0.86131061  0.05958065  0.32761175
   0.63868939  0.55958065  0.32761175
   0.37442636  0.46279828  0.39477066
   0.18077185  0.20810948  0.32449749
   0.80953080  0.80235862  0.39255993
   0.69046920  0.30235862  0.39255993
   0.31922815  0.70810948  0.32449749
   0.04301017  0.62458691  0.39047840
   0.95306540  0.37587622  0.32037600
   0.54693460  0.87587622  0.32037600
   0.45698983  0.12458691  0.39047840
Direct configuration=     6
   0.03641712  0.13800016  0.10714286
   0.96358288  0.86199984  0.03571429
   0.53641712  0.36199984  0.03571429
   0.46358288  0.63800016  0.10714286
   0.33168058  0.03561961  0.03571429
   0.66831942  0.96438039  0.10714286
   0.83168058  0.46438039  0.10714286
   0.16831942  0.53561961  0.03571429
   0.03641712  0.13800016  0.25000000
   0.96358288  0.86199984  0.17857143
   0.53641712  0.36199984  0.17857143
   0.46358288  0.63800016  0.25000000
   0.33168058  0.03561961  0.17857143
   0.66831942  0.96438039  0.25000000
   0.83168058  0.46438039  0.25000000
   0.16831942  0.53561961  0.17857143
   0.03641712  0.13800016  0.39285714
   0.96358288  0.86199984  0.32142857
   0.53641712  0.36199984  0.32142857
   0.46358288  0.63800016  0.39285714
   0.33794528  0.03340383  0.32843166
   0.68457376  0.96703147  0.38468091
   0.81542624  0.46703147  0.38468091
   0.16205472  0.53340383  0.32843166
   0.13903539  0.93940556  0.09902345
   0.87324082  0.03933019  0.03335317
   0.62675918  0.53933019  0.03335317
   0.36096461  0.43940556  0.09902345
   0.19037968  0.19493070  0.03579353
   0.81911952  0.79022240  0.10412016
   0.68088048  0.29022240  0.10412016
   0.30962032  0.69493070  0.03579353
   0.04991776  0.61937559  0.10644275
   0.95326507  0.38139051  0.04292735
   0.54673493  0.88139051  0.04292735
   0.45008224  0.11937559  0.10644275
   0.12615964  0.95080140  0.24990170
   0.87336499  0.04933252  0.17935204
   0.62663501  0.54933252  0.17935204
   0.37384036  0.45080140  0.24990170
   0.18730291  0.20221801  0.17858363
   0.81245573  0.79736481  0.25036512
   0.68754427  0.29736481  0.25036512
   0.31269709  0.70221801  0.17858363
   0.05063231  0.62622491  0.24727559
   0.95006262  0.37174705  0.18177466
   0.54993738  0.87174705  0.18177466
   0.44936769  0.12622491  0.24727559
   0.12663823  0.96037174  0.39560965
   0.86014727  0.06001362  0.32880423
   0.63985273  0.56001362  0.32880423
   0.37336177  0.46037174  0.39560965
   0.18055174  0.20761799  0.32496611
   0.81153880  0.80138803  0.39247272
   0.68846120  0.30138803  0.39247272
   0.31944826  0.70761799  0.32496611
   0.04205043  0.62486347  0.38982167
   0.95383467  0.37599904  0.31952571
   0.54616533  0.87599904  0.31952571
   0.45794957  0.12486347  0.38982167
Direct configuration=     7
   0.03641712  0.13800016  0.10714286
   0.96358288  0.86199984  0.03571429
   0.53641712  0.36199984  0.03571429
   0.46358288  0.63800016  0.10714286
   0.33168058  0.03561961  0.03571429
   0.66831942  0.96438039  0.10714286
   0.83168058  0.46438039  0.10714286
   0.16831942  0.53561961  0.03571429
   0.03641712  0.13800016  0.25000000
   0.96358288  0.86199984  0.17857143
   0.53641712  0.36199984  0.17857143
   0.46358288  0.63800016  0.25000000
   0.33168058  0.03561961  0.17857143
   0.66831942  0.96438039  0.25000000
   0.83168058  0.46438039  0.25000000
   0.16831942  0.53561961  0.17857143
   0.03641712  0.13800016  0.39285714
   0.96358288  0.86199984  0.32142857
   0.53641712  0.36199984  0.32142857
   0.46358288  0.63800016  0.39285714
   0.33828889  0.03406315  0.32878710
   0.68595081  0.96829324  0.38423844
   0.81404919  0.46829324  0.38423844
   0.16171111  0.53406315  0.32878710
   0.13934887  0.93918626  0.09838483
   0.87288715  0.04020214  0.03310641
   0.62711285  0.54020214  0.03310641
   0.36065113  0.43918626  0.09838483
   0.19001183  0.19454893  0.03579575
   0.81931186  0.79003106  0.10409100
   0.68068814  0.29003106  0.10409100
   0.30998817  0.69454893  0.03579575
   0.04970212  0.61910500  0.10664741
   0.95402433  0.38125088  0.04313111
   0.54597567  0.88125088  0.04313111
   0.45029788  0.11910500  0.10664741
   0.12566231  0.95062450  0.25007209
   0.87399525  0.04952024  0.17931250
   0.62600475  0.54952024  0.17931250
   0.37433769  0.45062450  0.25007209
   0.18696609  0.20216697  0.17860745
   0.81272425  0.79735638  0.25041853
   0.68727575  0.29735638  0.25041853
   0.31303391  0.70216697  0.17860745
   0.05098311  0.62601055  0.24727073
   0.94985600  0.37162271  0.18192970
   0.55014400  0.87162271  0.18192970
   0.44901689  0.12601055  0.24727073
   0.12704676  0.95944057  0.39593161
   0.85970085  0.06017978  0.32926184
   0.64029915  0.56017978  0.32926184
   0.37295324  0.45944057  0.39593161
   0.18046727  0.20742938  0.32514594
   0.81230936  0.80101557  0.39243926
   0.68769064  0.30101557  0.39243926
   0.31953273  0.70742938  0.32514594
   0.04168213  0.62496959  0.38956965
   0.95412987  0.37604617  0.31919942
   0.54587013  0.87604617  0.31919942
   0.45831787  0.12496959  0.38956965
Direct configuration=     8
   0.03641712  0.13800016  0.10714286
   0.96358288  0.86199984  0.03571429
   0.53641712  0.36199984  0.03571429
   0.46358288  0.63800016  0.10714286
   0.33168058  0.03561961  0.03571429
   0.66831942  0.96438039  0.10714286
   0.83168058  0.46438039  0.10714286
   0.16831942  0.53561961  0.03571429
   0.03641712  0.13800016  0.25000000
   0.96358288  0.86199984  0.17857143
   0.53641712  0.36199984  0.17857143
   0.46358288  0.63800016  0.25000000
   0.33168058  0.03561961  0.17857143
   0.66831942  0.96438039  0.25000000
   0.83168058  0.46438039  0.25000000
   0.16831942  0.53561961  0.17857143
   0.03641712  0.13800016  0.39285714
   0.96358288  0.86199984  0.32142857
   0.53641712  0.36199984  0.32142857
   0.46358288  0.63800016  0.39285714
   0.33796917  0.03479415  0.32893040
   0.68652236  0.96792100  0.38378332
   0.81347764  0.46792100  0.38378332
   0.16203083  0.53479415  0.32893040
   0.13974943  0.93971508  0.09749565
   0.87262329  0.04050040  0.03295175
   0.62737671  0.54050040  0.03295175
   0.36025057  0.43971508  0.09749565
   0.18941053  0.19473519  0.03575289
   0.81862656  0.79057177  0.10422975
   0.68137344  0.29057177  0.10422975
   0.31058947  0.69473519  0.03575289
   0.04898904  0.61948400  0.10703534
   0.95619190  0.37952440  0.04308895
   0.54380810  0.87952440  0.04308895
   0.45101096  0.11948400  0.10703534
   0.12546525  0.95072862  0.25043017
   0.87485633  0.04973684  0.17903890
   0.62514367  0.54973684  0.17903890
   0.37453475  0.45072862  0.25043017
   0.18677260  0.20223048  0.17884989
   0.81280972  0.79736060  0.25028221
   0.68719028  0.29736060  0.25028221
   0.31322740  0.70223048  0.17884989
   0.05129491  0.62606869  0.24751132
   0.94957624  0.37133976  0.18182071
   0.55042376  0.87133976  0.18182071
   0.44870509  0.12606869  0.24751132
   0.12705787  0.95947431  0.39637762
   0.85986041  0.05984158  0.32926552
   0.64013959  0.55984158  0.32926552
   0.37294213  0.45947431  0.39637762
   0.18113580  0.20700477  0.32531997
   0.81269171  0.80160794  0.39221400
   0.68730829  0.30160794  0.39221400
   0.31886420  0.70700477  0.32531997
   0.04029365  0.62637909  0.38928684
   0.95281589  0.37698279  0.31932471
   0.54718411  0.87698279  0.31932471
   0.45970635  0.12637909  0.38928684
Direct configuration=     9
   0.03641712  0.13800016  0.10714286
   0.96358288  0.86199984  0.03571429
   0.53641712  0.36199984  0.03571429
   0.46358288  0.63800016  0.10714286
   0.33168058  0.03561961  0.03571429
   0.66831942  0.96438039  0.10714286
   0.83168058  0.46438039  0.10714286
   0.16831942  0.53561961  0.03571429
   0.03641712  0.13800016  0.25000000
   0.96358288  0.86199984  0.17857143
   0.53641712  0.36199984  0.17857143
   0.46358288  0.63800016  0.25000000
   0.33168058  0.03561961  0.17857143
   0.66831942  0.96438039  0.25000000
   0.83168058  0.46438039  0.25000000
   0.16831942  0.53561961  0.17857143
   0.03641712  0.13800016  0.39285714
   0.96358288  0.86199984  0.32142857
   0.53641712  0.36199984  0.32142857
   0.46358288  0.63800016  0.39285714
   0.33749088  0.03588765  0.32914476
   0.68737736  0.96736416  0.38310249
   0.81262264  0.46736416  0.38310249
   0.16250912  0.53588765  0.32914476
   0.14034861  0.94050615  0.09616551
   0.87222857  0.04094658  0.03272039
   0.62777143  0.54094658  0.03272039
   0.35965139  0.44050615  0.09616551
   0.18851104  0.19501381  0.03568877
   0.81760142  0.79138063  0.10443732
   0.68239858  0.29138063  0.10443732
   0.31148896  0.69501381  0.03568877
   0.04792232  0.62005097  0.10761565
   0.95943439  0.37694174  0.04302588
   0.54056561  0.87694174  0.04302588
   0.45207768  0.12005097  0.10761565
   0.12517045  0.95088437  0.25096582
   0.87614443  0.05006085  0.17862962
   0.62385557  0.55006085  0.17862962
   0.37482955  0.45088437  0.25096582
   0.18648315  0.20232549  0.17921256
   0.81293757  0.79736693  0.25007829
   0.68706243  0.29736693  0.25007829
   0.31351685  0.70232549  0.17921256
   0.05176133  0.62615567  0.24787123
   0.94915775  0.37091649  0.18165768
   0.55084225  0.87091649  0.18165768
   0.44823867  0.12615567  0.24787123
   0.12707449  0.95952478  0.39704483
   0.86009909  0.05933566  0.32927101
   0.63990091  0.55933566  0.32927101
   0.37292551  0.45952478  0.39704483
   0.18213585  0.20636958  0.32558030
   0.81326367  0.80249409  0.39187702
   0.68673633  0.30249409  0.39187702
   0.31786415  0.70636958  0.32558030
   0.03821659  0.62848759  0.38886378
   0.95085028  0.37838389  0.31951215
   0.54914972  0.87838389  0.31951215
   0.46178341  0.12848759  0.38886378
Direct configuration=    10
   0.03641712  0.13800016  0.10714286
   0.96358288  0.86199984  0.03571429
   0.53641712  0.36199984  0.03571429
   0.46358288  0.63800016  0.10714286
   0.33168058  0.03561961  0.03571429
   0.66831942  0.96438039  0.10714286
   0.83168058  0.46438039  0.10714286
   0.16831942  0.53561961  0.03571429
   0.03641712  0.13800016  0.25000000
   0.96358288  0.86199984  0.17857143
   0.53641712  0.36199984  0.17857143
   0.46358288  0.63800016  0.25000000
   0.33168058  0.03561961  0.17857143
   0.66831942  0.96438039  0.25000000
   0.83168058  0.46438039  0.25000000
   0.16831942  0.53561961  0.17857143
   0.03641712  0.13800016  0.39285714
   0.96358288  0.86199984  0.32142857
   0.53641712  0.36199984  0.32142857
   0.46358288  0.63800016  0.39285714
   0.33763493  0.03699442  0.32954438
   0.68766276  0.96786655  0.38351214
   0.81233724  0.46786655  0.38351214
   0.16236507  0.53699442  0.32954438
   0.14137326  0.94092256  0.09527995
   0.87221620  0.04028633  0.03268236
   0.62778380  0.54028633  0.03268236
   0.35862674  0.44092256  0.09527995
   0.18845214  0.19527134  0.03567483
   0.81684076  0.79217079  0.10466569
   0.68315924  0.29217079  0.10466569
   0.31154786  0.69527134  0.03567483
   0.04755470  0.62047295  0.10778571
   0.96099317  0.37540681  0.04396643
   0.53900683  0.87540681  0.04396643
   0.45244530  0.12047295  0.10778571
   0.12527105  0.95124133  0.25133051
   0.87667463  0.05004855  0.17832200
   0.62332537  0.55004855  0.17832200
   0.37472895  0.45124133  0.25133051
   0.18666550  0.20234744  0.17942497
   0.81318660  0.79738330  0.24979612
   0.68681340  0.29738330  0.24979612
   0.31333450  0.70234744  0.17942497
   0.05227283  0.62608060  0.24816247
   0.94872545  0.37071841  0.18146080
   0.55127455  0.87071841  0.18146080
   0.44772717  0.12608060  0.24816247
   0.12669492  0.96036474  0.39754780
   0.86074216  0.05931054  0.32878764
   0.63925784  0.55931054  0.32878764
   0.37330508  0.46036474  0.39754780
   0.18279126  0.20628427  0.32564925
   0.81384180  0.80233751  0.39172711
   0.68615820  0.30233751  0.39172711
   0.31720874  0.70628427  0.32564925
   0.03698666  0.63061116  0.38811628
   0.95026986  0.37844407  0.31947452
   0.54973014  0.87844407  0.31947452
   0.46301334  0.13061116  0.38811628
Direct configuration=    11
   0.03641712  0.13800016  0.10714286
   0.96358288  0.86199984  0.03571429
   0.53641712  0.36199984  0.03571429
   0.46358288  0.63800016  0.10714286
   0.33168058  0.03561961  0.03571429
   0.66831942  0.96438039  0.10714286
   0.83168058  0.46438039  0.10714286
   0.16831942  0.53561961  0.03571429
   0.03641712  0.13800016  0.25000000
   0.96358288  0.86199984  0.17857143
   0.53641712  0.36199984  0.17857143
   0.46358288  0.63800016  0.25000000
   0.33168058  0.03561961  0.17857143
   0.66831942  0.96438039  0.25000000
   0.83168058  0.46438039  0.25000000
   0.16831942  0.53561961  0.17857143
   0.03641712  0.13800016  0.39285714
   0.96358288  0.86199984  0.32142857
   0.53641712  0.36199984  0.32142857
   0.46358288  0.63800016  0.39285714
   0.33794743  0.03939536  0.33041129
   0.68828187  0.96895639  0.38440080
   0.81171813  0.46895639  0.38440080
   0.16205257  0.53939536  0.33041129
   0.14359604  0.94182589  0.09335888
   0.87218936  0.03885404  0.03259986
   0.62781064  0.53885404  0.03259986
   0.35640396  0.44182589  0.09335888
   0.18832436  0.19583001  0.03564458
   0.81519064  0.79388490  0.10516110
   0.68480936  0.29388490  0.10516110
   0.31167564  0.69583001  0.03564458
   0.04675722  0.62138837  0.10815463
   0.96437468  0.37207706  0.04600679
   0.53562532  0.87207706  0.04600679
   0.45324278  0.12138837  0.10815463
   0.12548927  0.95201571  0.25212164
   0.87782479  0.05002189  0.17765469
   0.62217521  0.55002189  0.17765469
   0.37451073  0.45201571  0.25212164
   0.18706106  0.20239506  0.17988575
   0.81372684  0.79741883  0.24918400
   0.68627316  0.29741883  0.24918400
   0.31293894  0.70239506  0.17988575
   0.05338243  0.62591777  0.24879427
   0.94778764  0.37028870  0.18103371
   0.55221236  0.87028870  0.18103371
   0.44661757  0.12591777  0.24879427
   0.12587150  0.96218689  0.39863890
   0.86213717  0.05925603  0.32773904
   0.63786283  0.55925603  0.32773904
   0.37412850  0.46218689  0.39863890
   0.18421304  0.20609922  0.32579883
   0.81509598  0.80199784  0.39140191
   0.68490402  0.30199784  0.39140191
   0.31578696  0.70609922  0.32579883
   0.03431852  0.63521787  0.38649470
   0.94901073  0.37857461  0.31939290
   0.55098927  0.87857461  0.31939290
   0.46568148  0.13521787  0.38649470
Direct configuration=    12
   0.03641712  0.13800016  0.10714286
   0.96358288  0.86199984  0.03571429
   0.53641712  0.36199984  0.03571429
   0.46358288  0.63800016  0.10714286
   0.33168058  0.03561961  0.03571429
   0.66831942  0.96438039  0.10714286
   0.83168058  0.46438039  0.10714286
   0.16831942  0.53561961  0.03571429
   0.03641712  0.13800016  0.25000000
   0.96358288  0.86199984  0.17857143
   0.53641712  0.36199984  0.17857143
   0.46358288  0.63800016  0.25000000
   0.33168058  0.03561961  0.17857143
   0.66831942  0.96438039  0.25000000
   0.83168058  0.46438039  0.25000000
   0.16831942  0.53561961  0.17857143
   0.03641712  0.13800016  0.39285714
   0.96358288  0.86199984  0.32142857
   0.53641712  0.36199984  0.32142857
   0.46358288  0.63800016  0.39285714
   0.33780448  0.03960241  0.33043649
   0.68906304  0.96910972  0.38456075
   0.81093696  0.46910972  0.38456075
   0.16219552  0.53960241  0.33043649
   0.14504653  0.94182723  0.09278494
   0.87200033  0.03859771  0.03253116
   0.62799967  0.53859771  0.03253116
   0.35495347  0.44182723  0.09278494
   0.18875893  0.19590854  0.03565042
   0.81505282  0.79409770  0.10540153
   0.68494718  0.29409770  0.10540153
   0.31124107  0.69590854  0.03565042
   0.04691453  0.62164938  0.10812899
   0.96546102  0.37063960  0.04719181
   0.53453898  0.87063960  0.04719181
   0.45308547  0.12164938  0.10812899
   0.12581482  0.95230441  0.25231129
   0.87798098  0.04995132  0.17753593
   0.62201902  0.54995132  0.17753593
   0.37418518  0.45230441  0.25231129
   0.18725208  0.20242208  0.17985784
   0.81417800  0.79743400  0.24898092
   0.68582200  0.29743400  0.24898092
   0.31274792  0.70242208  0.17985784
   0.05389440  0.62565653  0.24895610
   0.94727643  0.37035328  0.18096369
   0.55272357  0.87035328  0.18096369
   0.44610560  0.12565653  0.24895610
   0.12576510  0.96237200  0.39915753
   0.86190642  0.05926864  0.32748092
   0.63809358  0.55926864  0.32748092
   0.37423490  0.46237200  0.39915753
   0.18424441  0.20660917  0.32571421
   0.81495888  0.80226063  0.39140311
   0.68504112  0.30226063  0.39140311
   0.31575559  0.70660917  0.32571421
   0.03267181  0.63778666  0.38599655
   0.94853905  0.37851362  0.31959117
   0.55146095  0.87851362  0.31959117
   0.46732819  0.13778666  0.38599655
Direct configuration=    13
   0.03641712  0.13800016  0.10714286
   0.96358288  0.86199984  0.03571429
   0.53641712  0.36199984  0.03571429
   0.46358288  0.63800016  0.10714286
   0.33168058  0.03561961  0.03571429
   0.66831942  0.96438039  0.10714286
   0.83168058  0.46438039  0.10714286
   0.16831942  0.53561961  0.03571429
   0.03641712  0.13800016  0.25000000
   0.96358288  0.86199984  0.17857143
   0.53641712  0.36199984  0.17857143
   0.46358288  0.63800016  0.25000000
   0.33168058  0.03561961  0.17857143
   0.66831942  0.96438039  0.25000000
   0.83168058  0.46438039  0.25000000
   0.16831942  0.53561961  0.17857143
   0.03641712  0.13800016  0.39285714
   0.96358288  0.86199984  0.32142857
   0.53641712  0.36199984  0.32142857
   0.46358288  0.63800016  0.39285714
   0.33737563  0.04022355  0.33051212
   0.69140657  0.96956973  0.38504060
   0.80859343  0.46956973  0.38504060
   0.16262437  0.54022355  0.33051212
   0.14939800  0.94183123  0.09106311
   0.87143323  0.03782873  0.03232504
   0.62856677  0.53782873  0.03232504
   0.35060200  0.44183123  0.09106311
   0.19006261  0.19614412  0.03566794
   0.81463934  0.79473610  0.10612283
   0.68536066  0.29473610  0.10612283
   0.30993739  0.69614412  0.03566794
   0.04738646  0.62243240  0.10805204
   0.96872005  0.36632723  0.05074685
   0.53127995  0.86632723  0.05074685
   0.45261354  0.12243240  0.10805204
   0.12679147  0.95317051  0.25288025
   0.87844955  0.04973962  0.17717964
   0.62155045  0.54973962  0.17717964
   0.37320853  0.45317051  0.25288025
   0.18782517  0.20250311  0.17977411
   0.81553146  0.79747950  0.24837167
   0.68446854  0.29747950  0.24837167
   0.31217483  0.70250311  0.17977411
   0.05543033  0.62487280  0.24944158
   0.94574280  0.37054702  0.18075361
   0.55425720  0.87054702  0.18075361
   0.44456967  0.12487280  0.24944158
   0.12544590  0.96292736  0.40071343
   0.86121416  0.05930646  0.32670658
   0.63878584  0.55930646  0.32670658
   0.37455410  0.46292736  0.40071343
   0.18433852  0.20813902  0.32546036
   0.81454761  0.80304901  0.39140673