  30  30   1   0
  0.6327519E+02  0.4192584E-09  0.4192584E-09  0.1246983E-07  0.5000000E-15
  1.000000000000000E-004
  CAR 
 Tetradymite Slab                        
     11.88458145    -25.98816027  301     -1.19780809      1.00000000
    -25.988  0.0000E+00  0.0000E+00
    -25.862  0.0000E+00  0.0000E+00
    -25.736  0.0000E+00  0.0000E+00
    -25.609 -0.3889E-27 -0.4910E-28
    -25.483 -0.7502E-23 -0.9472E-24
    -25.357 -0.6515E-19 -0.8226E-20
    -25.231 -0.2545E-15 -0.3214E-16
    -25.104 -0.4330E-12 -0.5469E-13
    -24.978 -0.3378E-09 -0.4271E-10
    -24.852 -0.1174E-06 -0.1487E-07
    -24.726 -0.1804E-04 -0.2293E-05
    -24.599 -0.1208E-02 -0.1548E-03
    -24.473 -0.3420E-01 -0.4473E-02
    -24.347 -0.3771E+00 -0.5208E-01
    -24.221 -0.1128E+01 -0.1945E+00
    -24.095  0.3305E+01  0.2227E+00
    -23.968  0.1834E+02  0.2538E+01
    -23.842  0.2194E+02  0.5308E+01
    -23.716  0.7036E+01  0.6196E+01
    -23.590 -0.8521E+00  0.6088E+01
    -23.463 -0.6185E+00  0.6010E+01
    -23.337 -0.7780E-01  0.6000E+01
    -23.211 -0.3644E-02  0.6000E+01
    -23.085 -0.7148E-04  0.6000E+01
    -22.958 -0.6113E-06  0.6000E+01
    -22.832 -0.2318E-08  0.6000E+01
    -22.706 -0.3930E-11  0.6000E+01
    -22.580 -0.2648E-14  0.6000E+01
    -22.453  0.0000E+00  0.6000E+01
    -22.327  0.0000E+00  0.6000E+01
    -22.201  0.0000E+00  0.6000E+01
    -22.075  0.0000E+00  0.6000E+01
    -21.948  0.0000E+00  0.6000E+01
    -21.822  0.0000E+00  0.6000E+01
    -21.696  0.0000E+00  0.6000E+01
    -21.570  0.0000E+00  0.6000E+01
    -21.443  0.0000E+00  0.6000E+01
    -21.317  0.0000E+00  0.6000E+01
    -21.191  0.0000E+00  0.6000E+01
    -21.065  0.0000E+00  0.6000E+01
    -20.938  0.0000E+00  0.6000E+01
    -20.812  0.0000E+00  0.6000E+01
    -20.686  0.0000E+00  0.6000E+01
    -20.560  0.0000E+00  0.6000E+01
    -20.433  0.0000E+00  0.6000E+01
    -20.307  0.0000E+00  0.6000E+01
    -20.181  0.0000E+00  0.6000E+01
    -20.055  0.0000E+00  0.6000E+01
    -19.929  0.0000E+00  0.6000E+01
    -19.802  0.0000E+00  0.6000E+01
    -19.676  0.0000E+00  0.6000E+01
    -19.550  0.0000E+00  0.6000E+01
    -19.424  0.0000E+00  0.6000E+01
    -19.297  0.0000E+00  0.6000E+01
    -19.171  0.0000E+00  0.6000E+01
    -19.045  0.0000E+00  0.6000E+01
    -18.919  0.0000E+00  0.6000E+01
    -18.792  0.0000E+00  0.6000E+01
    -18.666  0.0000E+00  0.6000E+01
    -18.540  0.0000E+00  0.6000E+01
    -18.414  0.0000E+00  0.6000E+01
    -18.287  0.0000E+00  0.6000E+01
    -18.161  0.0000E+00  0.6000E+01
    -18.035  0.0000E+00  0.6000E+01
    -17.909  0.0000E+00  0.6000E+01
    -17.782  0.0000E+00  0.6000E+01
    -17.656  0.0000E+00  0.6000E+01
    -17.530  0.0000E+00  0.6000E+01
    -17.404  0.0000E+00  0.6000E+01
    -17.277  0.0000E+00  0.6000E+01
    -17.151  0.0000E+00  0.6000E+01
    -17.025  0.0000E+00  0.6000E+01
    -16.899  0.0000E+00  0.6000E+01
    -16.772  0.0000E+00  0.6000E+01
    -16.646  0.0000E+00  0.6000E+01
    -16.520 -0.9027E-31  0.6000E+01
    -16.394 -0.1944E-26  0.6000E+01
    -16.267 -0.1892E-22  0.6000E+01
    -16.141 -0.8361E-19  0.6000E+01
    -16.015 -0.1642E-15  0.6000E+01
    -15.889 -0.1489E-12  0.6000E+01
    -15.763 -0.6208E-10  0.6000E+01
    -15.636 -0.1182E-07  0.6000E+01
    -15.510 -0.1025E-05  0.6000E+01
    -15.384 -0.3987E-04  0.6000E+01
    -15.258 -0.6728E-03  0.6000E+01
    -15.131 -0.4439E-02  0.5999E+01
    -15.005 -0.5908E-02  0.5999E+01
    -14.879  0.3988E-01  0.6004E+01
    -14.753  0.1557E+00  0.6023E+01
    -14.626  0.2420E+00  0.6054E+01
    -14.500  0.2680E+00  0.6088E+01
    -14.374  0.3422E+00  0.6131E+01
    -14.248  0.4573E+00  0.6189E+01
    -14.121  0.5805E+00  0.6262E+01
    -13.995  0.5998E+00  0.6338E+01
    -13.869  0.5845E+00  0.6411E+01
    -13.743  0.6875E+00  0.6498E+01
    -13.616  0.6764E+00  0.6584E+01
    -13.490  0.6921E+00  0.6671E+01
    -13.364  0.9176E+00  0.6787E+01
    -13.238  0.1264E+01  0.6946E+01
    -13.111  0.1966E+01  0.7194E+01
    -12.985  0.2478E+01  0.7507E+01
    -12.859  0.1867E+01  0.7743E+01
    -12.733  0.5667E+00  0.7815E+01
    -12.606 -0.5119E-01  0.7808E+01
    -12.480 -0.5486E-01  0.7801E+01
    -12.354 -0.8818E-02  0.7800E+01
    -12.228 -0.5436E-03  0.7800E+01
    -12.101 -0.5634E-04  0.7800E+01
    -11.975 -0.9990E-03  0.7800E+01
    -11.849 -0.9975E-02  0.7799E+01
    -11.723 -0.3226E-01  0.7795E+01
    -11.597  0.5275E-01  0.7801E+01
    -11.470  0.4712E+00  0.7861E+01
    -11.344  0.9202E+00  0.7977E+01
    -11.218  0.9519E+00  0.8097E+01
    -11.092  0.9307E+00  0.8215E+01
    -10.965  0.9510E+00  0.8335E+01
    -10.839  0.8769E+00  0.8445E+01
    -10.713  0.8888E+00  0.8557E+01
    -10.587  0.7780E+00  0.8656E+01
    -10.460  0.6684E+00  0.8740E+01
    -10.334  0.5588E+00  0.8811E+01
    -10.208  0.2885E+00  0.8847E+01
    -10.082  0.1484E+00  0.8866E+01
     -9.955  0.2129E+00  0.8893E+01
     -9.829  0.2017E+00  0.8918E+01
     -9.703  0.1608E+00  0.8938E+01
     -9.577  0.1844E+00  0.8962E+01
     -9.450  0.1651E+00  0.8983E+01
     -9.324  0.1072E+00  0.8996E+01
     -9.198  0.3651E-01  0.9001E+01
     -9.072 -0.1108E-02  0.9001E+01
     -8.945 -0.3394E-02  0.9000E+01
     -8.819 -0.6811E-03  0.9000E+01
     -8.693 -0.5335E-04  0.9000E+01
     -8.567 -0.1874E-05  0.9000E+01
     -8.440 -0.3027E-07  0.9000E+01
     -8.314 -0.2243E-09  0.9000E+01
     -8.188 -0.7564E-12  0.9000E+01
     -8.062 -0.1155E-14  0.9000E+01
     -7.935  0.0000E+00  0.9000E+01
     -7.809  0.0000E+00  0.9000E+01
     -7.683  0.0000E+00  0.9000E+01
     -7.557 -0.1132E-32  0.9000E+01
     -7.431 -0.3580E-28  0.9000E+01
     -7.304 -0.4953E-24  0.9000E+01
     -7.178 -0.3097E-20  0.9000E+01
     -7.052 -0.8765E-17  0.9000E+01
     -6.926 -0.1090E-13  0.9000E+01
     -6.799 -0.6337E-11  0.9000E+01
     -6.673 -0.1686E-08  0.9000E+01
     -6.547 -0.2063E-06  0.9000E+01
     -6.421 -0.1163E-04  0.9000E+01
     -6.294 -0.2999E-03  0.9000E+01
     -6.168 -0.3391E-02  0.9000E+01
     -6.042 -0.1412E-01  0.8998E+01
     -5.916  0.4340E-02  0.8998E+01
     -5.789  0.1643E+00  0.9019E+01
     -5.663  0.4447E+00  0.9075E+01
     -5.537  0.6758E+00  0.9160E+01
     -5.411  0.6773E+00  0.9246E+01
     -5.284  0.5045E+00  0.9310E+01
     -5.158  0.5468E+00  0.9379E+01
     -5.032  0.5866E+00  0.9453E+01
     -4.906  0.4886E+00  0.9514E+01
     -4.779  0.6466E+00  0.9596E+01
     -4.653  0.8800E+00  0.9707E+01
     -4.527  0.1034E+01  0.9838E+01
     -4.401  0.1363E+01  0.1001E+02
     -4.274  0.1508E+01  0.1020E+02
     -4.148  0.1375E+01  0.1037E+02
     -4.022  0.1412E+01  0.1055E+02
     -3.896  0.1467E+01  0.1074E+02
     -3.769  0.1305E+01  0.1090E+02
     -3.643  0.1236E+01  0.1106E+02
     -3.517  0.1464E+01  0.1124E+02
     -3.391  0.1656E+01  0.1145E+02
     -3.265  0.1697E+01  0.1167E+02
     -3.138  0.1550E+01  0.1186E+02
     -3.012  0.1293E+01  0.1203E+02
     -2.886  0.1087E+01  0.1216E+02
     -2.760  0.9232E+00  0.1228E+02
     -2.633  0.8954E+00  0.1239E+02
     -2.507  0.1094E+01  0.1253E+02
     -2.381  0.1377E+01  0.1270E+02
     -2.255  0.1649E+01  0.1291E+02
     -2.128  0.1802E+01  0.1314E+02
     -2.002  0.1712E+01  0.1336E+02
     -1.876  0.1498E+01  0.1354E+02
     -1.750  0.1466E+01  0.1373E+02
     -1.623  0.1715E+01  0.1395E+02
     -1.497  0.1698E+01  0.1416E+02
     -1.371  0.1204E+01  0.1431E+02
     -1.245  0.6007E+00  0.1439E+02
     -1.118  0.1378E+00  0.1441E+02
     -0.992 -0.2680E-01  0.1440E+02
     -0.866 -0.1800E-01  0.1440E+02
     -0.740 -0.3120E-02  0.1440E+02
     -0.613  0.3537E-02  0.1440E+02
     -0.487  0.1186E-01  0.1440E+02
     -0.361  0.9259E-02  0.1440E+02
     -0.235  0.1182E-01  0.1440E+02
     -0.108  0.5627E-01  0.1441E+02
      0.018  0.1013E+00  0.1442E+02
      0.144  0.1536E+00  0.1444E+02
      0.270  0.2667E+00  0.1448E+02
      0.397  0.4643E+00  0.1454E+02
      0.523  0.8128E+00  0.1464E+02
      0.649  0.9624E+00  0.1476E+02
      0.775  0.7744E+00  0.1486E+02
      0.901  0.8671E+00  0.1497E+02
      1.028  0.1284E+01  0.1513E+02
      1.154  0.1565E+01  0.1533E+02
      1.280  0.1562E+01  0.1552E+02
      1.406  0.1429E+01  0.1570E+02
      1.533  0.1343E+01  0.1587E+02
      1.659  0.1290E+01  0.1604E+02
      1.785  0.1342E+01  0.1621E+02
      1.911  0.1271E+01  0.1637E+02
      2.038  0.8423E+00  0.1647E+02
      2.164  0.6154E+00  0.1655E+02
      2.290  0.7930E+00  0.1665E+02
      2.416  0.1024E+01  0.1678E+02
      2.543  0.1072E+01  0.1692E+02
      2.669  0.1056E+01  0.1705E+02
      2.795  0.1185E+01  0.1720E+02
      2.921  0.1288E+01  0.1736E+02
      3.048  0.1109E+01  0.1750E+02
      3.174  0.7396E+00  0.1759E+02
      3.300  0.6779E+00  0.1768E+02
      3.426  0.8896E+00  0.1779E+02
      3.553  0.1009E+01  0.1792E+02
      3.679  0.9133E+00  0.1803E+02
      3.805  0.6405E+00  0.1812E+02
      3.931  0.5082E+00  0.1818E+02
      4.058  0.5648E+00  0.1825E+02
      4.184  0.4510E+00  0.1831E+02
      4.310  0.3440E+00  0.1835E+02
      4.436  0.3942E+00  0.1840E+02
      4.563  0.3925E+00  0.1845E+02
      4.689  0.3657E+00  0.1850E+02
      4.815  0.4392E+00  0.1855E+02
      4.941  0.5759E+00  0.1863E+02
      5.067  0.7823E+00  0.1872E+02
      5.194  0.9541E+00  0.1884E+02
      5.320  0.9084E+00  0.1896E+02
      5.446  0.9855E+00  0.1908E+02
      5.572  0.1238E+01  0.1924E+02
      5.699  0.1216E+01  0.1939E+02
      5.825  0.9731E+00  0.1952E+02
      5.951  0.8975E+00  0.1963E+02
      6.077  0.1150E+01  0.1977E+02
      6.204  0.1467E+01  0.1996E+02
      6.330  0.1512E+01  0.2015E+02
      6.456  0.1416E+01  0.2033E+02
      6.582  0.1405E+01  0.2051E+02
      6.709  0.1527E+01  0.2070E+02
      6.835  0.1691E+01  0.2091E+02
      6.961  0.1752E+01  0.2113E+02
      7.087  0.1735E+01  0.2135E+02
      7.214  0.1695E+01  0.2157E+02
      7.340  0.1627E+01  0.2177E+02
      7.466  0.1673E+01  0.2198E+02
      7.592  0.1874E+01  0.2222E+02
      7.719  0.1917E+01  0.2246E+02
      7.845  0.1815E+01  0.2269E+02
      7.971  0.1742E+01  0.2291E+02
      8.097  0.1662E+01  0.2312E+02
      8.224  0.1626E+01  0.2333E+02
      8.350  0.1714E+01  0.2354E+02
      8.476  0.1777E+01  0.2377E+02
      8.602  0.1726E+01  0.2399E+02
      8.729  0.1645E+01  0.2419E+02
      8.855  0.1604E+01  0.2440E+02
      8.981  0.1604E+01  0.2460E+02
      9.107  0.1562E+01  0.2480E+02
      9.233  0.1562E+01  0.2499E+02
      9.360  0.1635E+01  0.2520E+02
      9.486  0.1478E+01  0.2539E+02
      9.612  0.9514E+00  0.2551E+02
      9.738  0.4415E+00  0.2556E+02
      9.865  0.2095E+00  0.2559E+02
      9.991  0.9671E-01  0.2560E+02
     10.117  0.1119E-01  0.2560E+02
     10.243 -0.8520E-02  0.2560E+02
     10.370 -0.2613E-02  0.2560E+02
     10.496 -0.2484E-03  0.2560E+02
     10.622 -0.9438E-05  0.2560E+02
     10.748 -0.1529E-06  0.2560E+02
     10.875 -0.1084E-08  0.2560E+02
     11.001 -0.3397E-11  0.2560E+02
     11.127 -0.4749E-14  0.2560E+02
     11.253  0.0000E+00  0.2560E+02
     11.380  0.0000E+00  0.2560E+02
     11.506  0.0000E+00  0.2560E+02
     11.632  0.0000E+00  0.2560E+02
     11.758  0.0000E+00  0.2560E+02
     11.885  0.0000E+00  0.2560E+02
     11.88458145    -25.98816027  301     -1.19780809      1.00000000
    -25.988  0.0000E+00  0.0000E+00  0.0000E+00  0.0000E+00  0.0000E+00  0.0000E+00  0.0000E+00  0.0000E+00  0.0000E+00
    -25.862  0.0000E+00  0.0000E+00  0.0000E+00  0.0000E+00  0.0000E+00  0.0000E+00  0.0000E+00  0.0000E+00  0.0000E+00
    -25.736  0.0000E+00  0.0000E+00  0.0000E+00  0.0000E+00  0.0000E+00  0.0000E+00  0.0000E+00  0.0000E+00  0.0000E+00
    -25.609 -0.2635E-32 -0.1257E-32 -0.4838E-33 -0.1674E-32 -0.2521E-27 -0.1571E-27 -0.1085E-27 -0.1885E-27 -0.1890E-27
    -25.483 -0.4839E-28 -0.2363E-28 -0.9438E-29 -0.3120E-28 -0.4730E-23 -0.3078E-23 -0.2188E-23 -0.3628E-23 -0.3624E-23
    -25.357 -0.3987E-24 -0.1994E-24 -0.8278E-25 -0.2609E-24 -0.3986E-19 -0.2709E-19 -0.1983E-19 -0.3139E-19 -0.3123E-19
    -25.231 -0.1472E-20 -0.7543E-21 -0.3260E-21 -0.9782E-21 -0.1507E-15 -0.1069E-15 -0.8062E-16 -0.1219E-15 -0.1208E-15
    -25.104 -0.2358E-17 -0.1238E-17 -0.5578E-18 -0.1590E-17 -0.2474E-12 -0.1833E-12 -0.1423E-12 -0.2054E-12 -0.2029E-12
    -24.978 -0.1724E-14 -0.9279E-15 -0.4364E-15 -0.1181E-14 -0.1857E-09 -0.1435E-09 -0.1147E-09 -0.1583E-09 -0.1559E-09
    -24.852 -0.5585E-12 -0.3083E-12 -0.1515E-12 -0.3887E-12 -0.6180E-07 -0.4977E-07 -0.4100E-07 -0.5408E-07 -0.5313E-07
    -24.726 -0.7942E-10 -0.4498E-10 -0.2313E-10 -0.5617E-10 -0.9047E-05 -0.7583E-05 -0.6438E-05 -0.8121E-05 -0.7967E-05
    -24.599 -0.4877E-08 -0.2837E-08 -0.1529E-08 -0.3508E-08 -0.5730E-03 -0.4995E-03 -0.4373E-03 -0.5273E-03 -0.5173E-03
    -24.473 -0.1248E-06 -0.7466E-07 -0.4230E-07 -0.9137E-07 -0.1517E-01 -0.1375E-01 -0.1244E-01 -0.1431E-01 -0.1406E-01
    -24.347 -0.1206E-05 -0.7464E-06 -0.4484E-06 -0.9023E-06 -0.1530E+00 -0.1447E+00 -0.1358E+00 -0.1481E+00 -0.1461E+00
    -24.221 -0.2667E-05 -0.1778E-05 -0.1207E-05 -0.2094E-05 -0.3729E+00 -0.3819E+00 -0.3861E+00 -0.3790E+00 -0.3785E+00
    -24.095  0.1249E-04  0.7525E-05  0.4283E-05  0.9185E-05  0.1526E+01  0.1398E+01  0.1262E+01  0.1451E+01  0.1419E+01
    -23.968  0.5013E-04  0.3211E-04  0.2051E-04  0.3835E-04  0.6661E+01  0.6547E+01  0.6395E+01  0.6599E+01  0.6555E+01
    -23.842  0.4866E-04  0.3238E-04  0.2211E-04  0.3816E-04  0.6825E+01  0.6954E+01  0.7098E+01  0.6899E+01  0.6935E+01
    -23.716  0.1101E-04  0.7791E-05  0.5890E-05  0.8997E-05  0.1691E+01  0.1805E+01  0.1967E+01  0.1750E+01  0.1800E+01
    -23.590 -0.2746E-05 -0.1763E-05 -0.1120E-05 -0.2103E-05 -0.3636E+00 -0.3605E+00 -0.3481E+00 -0.3634E+00 -0.3577E+00
    -23.463 -0.1110E-05 -0.7638E-06 -0.5532E-06 -0.8901E-06 -0.1638E+00 -0.1712E+00 -0.1818E+00 -0.1676E+00 -0.1709E+00
    -23.337 -0.1091E-06 -0.7748E-07 -0.5929E-07 -0.8940E-07 -0.1694E-01 -0.1802E-01 -0.1989E-01 -0.1744E-01 -0.1810E-01
    -23.211 -0.4088E-08 -0.2979E-08 -0.2384E-08 -0.3410E-08 -0.6629E-03 -0.7130E-03 -0.8125E-03 -0.6838E-03 -0.7214E-03
    -23.085 -0.6403E-10 -0.4776E-10 -0.3982E-10 -0.5430E-10 -0.1082E-04 -0.1171E-04 -0.1376E-04 -0.1114E-04 -0.1197E-04
    -22.958 -0.4338E-12 -0.3308E-12 -0.2867E-12 -0.3738E-12 -0.7639E-07 -0.8291E-07 -0.1003E-06 -0.7830E-07 -0.8566E-07
    -22.832 -0.1292E-14 -0.1006E-14 -0.9048E-15 -0.1131E-14 -0.2370E-09 -0.2571E-09 -0.3200E-09 -0.2411E-09 -0.2691E-09
    -22.706 -0.1707E-17 -0.1359E-17 -0.1264E-17 -0.1519E-17 -0.3262E-12 -0.3526E-12 -0.4515E-12 -0.3287E-12 -0.3749E-12
    -22.580 -0.2048E-24 -0.4550E-24 -0.8308E-24 -0.3792E-24 -0.7819E-21 -0.1420E-20 -0.1934E-20 -0.1452E-20 -0.9477E-21
    -22.453  0.0000E+00  0.0000E+00  0.0000E+00  0.0000E+00  0.0000E+00  0.0000E+00  0.0000E+00  0.0000E+00  0.0000E+00
    -22.327  0.0000E+00  0.0000E+00  0.0000E+00  0.0000E+00  0.0000E+00  0.0000E+00  0.0000E+00  0.0000E+00  0.0000E+00
    -22.201  0.0000E+00  0.0000E+00  0.0000E+00  0.0000E+00  0.0000E+00  0.0000E+00  0.0000E+00  0.0000E+00  0.0000E+00
    -22.075  0.0000E+00  0.0000E+00  0.0000E+00  0.0000E+00  0.0000E+00  0.0000E+00  0.0000E+00  0.0000E+00  0.0000E+00
    -21.948  0.0000E+00  0.0000E+00  0.0000E+00  0.0000E+00  0.0000E+00  0.0000E+00  0.0000E+00  0.0000E+00  0.0000E+00
    -21.822  0.0000E+00  0.0000E+00  0.0000E+00  0.0000E+00  0.0000E+00  0.0000E+00  0.0000E+00  0.0000E+00  0.0000E+00
    -21.696  0.0000E+00  0.0000E+00  0.0000E+00  0.0000E+00  0.0000E+00  0.0000E+00  0.0000E+00  0.0000E+00  0.0000E+00
    -21.570  0.0000E+00  0.0000E+00  0.0000E+00  0.0000E+00  0.0000E+00  0.0000E+00  0.0000E+00  0.0000E+00  0.0000E+00
    -21.443  0.0000E+00  0.0000E+00  0.0000E+00  0.0000E+00  0.0000E+00  0.0000E+00  0.0000E+00  0.0000E+00  0.0000E+00
    -21.317  0.0000E+00  0.0000E+00  0.0000E+00  0.0000E+00  0.0000E+00  0.0000E+00  0.0000E+00  0.0000E+00  0.0000E+00
    -21.191  0.0000E+00  0.0000E+00  0.0000E+00  0.0000E+00  0.0000E+00  0.0000E+00  0.0000E+00  0.0000E+00  0.0000E+00
    -21.065  0.0000E+00  0.0000E+00  0.0000E+00  0.0000E+00  0.0000E+00  0.0000E+00  0.0000E+00  0.0000E+00  0.0000E+00
    -20.938  0.0000E+00  0.0000E+00  0.0000E+00  0.0000E+00  0.0000E+00  0.0000E+00  0.0000E+00  0.0000E+00  0.0000E+00
    -20.812  0.0000E+00  0.0000E+00  0.0000E+00  0.0000E+00  0.0000E+00  0.0000E+00  0.0000E+00  0.0000E+00  0.0000E+00
    -20.686  0.0000E+00  0.0000E+00  0.0000E+00  0.0000E+00  0.0000E+00  0.0000E+00  0.0000E+00  0.0000E+00  0.0000E+00
    -20.560  0.0000E+00  0.0000E+00  0.0000E+00  0.0000E+00  0.0000E+00  0.0000E+00  0.0000E+00  0.0000E+00  0.0000E+00
    -20.433  0.0000E+00  0.0000E+00  0.0000E+00  0.0000E+00  0.0000E+00  0.0000E+00  0.0000E+00  0.0000E+00  0.0000E+00
    -20.307  0.0000E+00  0.0000E+00  0.0000E+00  0.0000E+00  0.0000E+00  0.0000E+00  0.0000E+00  0.0000E+00  0.0000E+00
    -20.181  0.0000E+00  0.0000E+00  0.0000E+00  0.0000E+00  0.0000E+00  0.0000E+00  0.0000E+00  0.0000E+00  0.0000E+00
    -20.055  0.0000E+00  0.0000E+00  0.0000E+00  0.0000E+00  0.0000E+00  0.0000E+00  0.0000E+00  0.0000E+00  0.0000E+00
    -19.929  0.0000E+00  0.0000E+00  0.0000E+00  0.0000E+00  0.0000E+00  0.0000E+00  0.0000E+00  0.0000E+00  0.0000E+00
    -19.802  0.0000E+00  0.0000E+00  0.0000E+00  0.0000E+00  0.0000E+00  0.0000E+00  0.0000E+00  0.0000E+00  0.0000E+00
    -19.676  0.0000E+00  0.0000E+00  0.0000E+00  0.0000E+00  0.0000E+00  0.0000E+00  0.0000E+00  0.0000E+00  0.0000E+00
    -19.550  0.0000E+00  0.0000E+00  0.0000E+00  0.0000E+00  0.0000E+00  0.0000E+00  0.0000E+00  0.0000E+00  0.0000E+00
    -19.424  0.0000E+00  0.0000E+00  0.0000E+00  0.0000E+00  0.0000E+00  0.0000E+00  0.0000E+00  0.0000E+00  0.0000E+00
    -19.297  0.0000E+00  0.0000E+00  0.0000E+00  0.0000E+00  0.0000E+00  0.0000E+00  0.0000E+00  0.0000E+00  0.0000E+00
    -19.171  0.0000E+00  0.0000E+00  0.0000E+00  0.0000E+00  0.0000E+00  0.0000E+00  0.0000E+00  0.0000E+00  0.0000E+00
    -19.045  0.0000E+00  0.0000E+00  0.0000E+00  0.0000E+00  0.0000E+00  0.0000E+00  0.0000E+00  0.0000E+00  0.0000E+00
    -18.919  0.0000E+00  0.0000E+00  0.0000E+00  0.0000E+00  0.0000E+00  0.0000E+00  0.0000E+00  0.0000E+00  0.0000E+00
    -18.792  0.0000E+00  0.0000E+00  0.0000E+00  0.0000E+00  0.0000E+00  0.0000E+00  0.0000E+00  0.0000E+00  0.0000E+00
    -18.666  0.0000E+00  0.0000E+00  0.0000E+00  0.0000E+00  0.0000E+00  0.0000E+00  0.0000E+00  0.0000E+00  0.0000E+00
    -18.540  0.0000E+00  0.0000E+00  0.0000E+00  0.0000E+00  0.0000E+00  0.0000E+00  0.0000E+00  0.0000E+00  0.0000E+00
    -18.414  0.0000E+00  0.0000E+00  0.0000E+00  0.0000E+00  0.0000E+00  0.0000E+00  0.0000E+00  0.0000E+00  0.0000E+00
    -18.287  0.0000E+00  0.0000E+00  0.0000E+00  0.0000E+00  0.0000E+00  0.0000E+00  0.0000E+00  0.0000E+00  0.0000E+00
    -18.161  0.0000E+00  0.0000E+00  0.0000E+00  0.0000E+00  0.0000E+00  0.0000E+00  0.0000E+00  0.0000E+00  0.0000E+00
    -18.035  0.0000E+00  0.0000E+00  0.0000E+00  0.0000E+00  0.0000E+00  0.0000E+00  0.0000E+00  0.0000E+00  0.0000E+00
    -17.909  0.0000E+00  0.0000E+00  0.0000E+00  0.0000E+00  0.0000E+00  0.0000E+00  0.0000E+00  0.0000E+00  0.0000E+00
    -17.782  0.0000E+00  0.0000E+00  0.0000E+00  0.0000E+00  0.0000E+00  0.0000E+00  0.0000E+00  0.0000E+00  0.0000E+00
    -17.656  0.0000E+00  0.0000E+00  0.0000E+00  0.0000E+00  0.0000E+00  0.0000E+00  0.0000E+00  0.0000E+00  0.0000E+00
    -17.530  0.0000E+00  0.0000E+00  0.0000E+00  0.0000E+00  0.0000E+00  0.0000E+00  0.0000E+00  0.0000E+00  0.0000E+00
    -17.404  0.0000E+00  0.0000E+00  0.0000E+00  0.0000E+00  0.0000E+00  0.0000E+00  0.0000E+00  0.0000E+00  0.0000E+00
    -17.277  0.0000E+00  0.0000E+00  0.0000E+00  0.0000E+00  0.0000E+00  0.0000E+00  0.0000E+00  0.0000E+00  0.0000E+00
    -17.151  0.0000E+00  0.0000E+00  0.0000E+00  0.0000E+00  0.0000E+00  0.0000E+00  0.0000E+00  0.0000E+00  0.0000E+00
    -17.025  0.0000E+00  0.0000E+00  0.0000E+00  0.0000E+00  0.0000E+00  0.0000E+00  0.0000E+00  0.0000E+00  0.0000E+00
    -16.899  0.0000E+00  0.0000E+00  0.0000E+00  0.0000E+00  0.0000E+00  0.0000E+00  0.0000E+00  0.0000E+00  0.0000E+00
    -16.772  0.0000E+00  0.0000E+00  0.0000E+00  0.0000E+00  0.0000E+00  0.0000E+00  0.0000E+00  0.0000E+00  0.0000E+00
    -16.646  0.0000E+00  0.0000E+00  0.0000E+00  0.0000E+00  0.0000E+00  0.0000E+00  0.0000E+00  0.0000E+00  0.0000E+00
    -16.520 -0.5653E-31 -0.1481E-35 -0.8780E-35 -0.4443E-35 -0.5422E-37 -0.7223E-38 -0.1434E-34 -0.2165E-37 -0.1808E-37
    -16.394 -0.1205E-26 -0.4881E-31 -0.1845E-30 -0.1463E-30 -0.1754E-32 -0.2286E-33 -0.3048E-30 -0.6849E-33 -0.5853E-33
    -16.267 -0.1158E-22 -0.6677E-27 -0.1751E-26 -0.2001E-26 -0.2391E-28 -0.3106E-29 -0.2923E-26 -0.9304E-29 -0.7980E-29
    -16.141 -0.5053E-19 -0.4104E-23 -0.7529E-23 -0.1228E-22 -0.1463E-24 -0.1895E-25 -0.1270E-22 -0.5672E-25 -0.4887E-25
    -16.015 -0.9782E-16 -0.1133E-19 -0.1434E-19 -0.3382E-19 -0.4014E-21 -0.5190E-22 -0.2443E-19 -0.1551E-21 -0.1344E-21
    -15.889 -0.8731E-13 -0.1358E-16 -0.1257E-16 -0.4029E-16 -0.4770E-18 -0.6166E-19 -0.2166E-16 -0.1836E-18 -0.1604E-18
    -15.763 -0.3571E-10 -0.7496E-14 -0.5041E-14 -0.2199E-13 -0.2599E-15 -0.3372E-16 -0.8778E-14 -0.9977E-16 -0.8814E-16
    -15.636 -0.6650E-08 -0.1860E-11 -0.9180E-12 -0.5325E-11 -0.6303E-13 -0.8288E-14 -0.1616E-11 -0.2418E-13 -0.2177E-13
    -15.510 -0.5606E-06 -0.2086E-09 -0.7549E-10 -0.5677E-09 -0.6783E-11 -0.9219E-12 -0.1344E-09 -0.2614E-11 -0.2431E-11
    -15.384 -0.2106E-04 -0.1072E-07 -0.2757E-08 -0.2635E-07 -0.3235E-09 -0.4719E-10 -0.4962E-08 -0.1269E-09 -0.1246E-09
    -15.258 -0.3389E-03 -0.2564E-06 -0.4293E-07 -0.5214E-06 -0.6857E-08 -0.1140E-08 -0.7795E-07 -0.2812E-08 -0.2993E-08
    -15.131 -0.2074E-02 -0.2841E-05 -0.2512E-06 -0.4203E-05 -0.6502E-07 -0.1309E-07 -0.4541E-06 -0.2924E-07 -0.3376E-07
    -15.005 -0.1972E-02 -0.1265E-04 -0.2221E-06 -0.1125E-04 -0.2636E-06 -0.6314E-07 -0.2648E-06 -0.1402E-06 -0.1568E-06
    -14.879  0.2025E-01 -0.1374E-05  0.1480E-05  0.1491E-04 -0.2173E-06 -0.2686E-07  0.4900E-05 -0.2254E-06 -0.3697E-07
    -14.753  0.6905E-01  0.1309E-03 -0.4908E-05  0.1528E-03  0.1693E-05  0.5558E-06  0.1396E-04  0.3874E-06  0.1617E-05
    -14.626  0.9902E-01  0.3808E-03 -0.4601E-04  0.4069E-03  0.8072E-05  0.7900E-06  0.1494E-04  0.3147E-05  0.4115E-05
    -14.500  0.1058E+00  0.7181E-03  0.2593E-04  0.7494E-03  0.2445E-04 -0.2859E-06  0.1452E-04  0.1296E-04  0.6095E-05
    -14.374  0.1342E+00  0.1002E-02  0.6924E-03  0.1156E-02  0.4771E-04  0.9224E-05  0.4447E-04  0.3468E-04  0.1436E-04
    -14.248  0.1741E+00  0.1447E-02  0.1777E-02  0.1519E-02  0.9314E-04  0.4966E-04  0.9200E-04  0.9288E-04  0.4071E-04
    -14.121  0.2107E+00  0.2433E-02  0.2302E-02  0.2243E-02  0.1890E-03  0.1188E-03  0.1048E-03  0.2065E-03  0.8459E-04
    -13.995  0.2046E+00  0.2599E-02  0.2286E-02  0.2909E-02  0.2693E-03  0.1975E-03  0.8795E-04  0.3175E-03  0.1299E-03
    -13.869  0.1890E+00  0.3282E-02  0.2112E-02  0.3511E-02  0.3989E-03  0.2785E-03  0.6711E-04  0.4790E-03  0.1821E-03
    -13.743  0.2093E+00  0.4899E-02  0.2055E-02  0.4669E-02  0.6208E-03  0.4020E-03  0.5212E-04  0.7265E-03  0.2615E-03
    -13.616  0.1895E+00  0.4613E-02  0.1814E-02  0.5179E-02  0.7222E-03  0.4820E-03  0.4032E-04  0.8701E-03  0.3136E-03
    -13.490  0.1763E+00  0.5933E-02  0.1350E-02  0.6205E-02  0.1020E-02  0.6225E-03  0.2641E-04  0.1257E-02  0.4197E-03
    -13.364  0.1973E+00  0.8474E-02  0.2834E-02  0.8597E-02  0.1602E-02  0.7781E-03  0.2985E-04  0.1976E-02  0.5445E-03
    -13.238  0.1792E+00  0.9418E-02  0.9626E-02  0.1181E-01  0.2376E-02  0.1415E-02  0.6865E-04  0.3154E-02  0.9483E-03
    -13.111  0.1542E+00  0.1107E-01  0.1882E-01  0.1663E-01  0.3820E-02  0.3766E-02  0.1239E-03  0.5798E-02  0.2265E-02
    -12.985  0.1036E+00  0.9358E-02  0.2110E-01  0.1871E-01  0.4736E-02  0.7083E-02  0.1334E-03  0.7958E-02  0.3996E-02
    -12.859  0.3742E-01  0.4275E-02  0.1265E-01  0.1291E-01  0.3220E-02  0.6612E-02  0.7685E-04  0.5711E-02  0.3637E-02
    -12.733  0.2085E-02  0.5958E-03  0.2444E-02  0.3363E-02  0.7326E-03  0.2135E-02  0.1398E-04  0.1349E-02  0.1161E-02
    -12.606 -0.2977E-02 -0.2658E-03 -0.6861E-03 -0.5483E-03 -0.1569E-03 -0.2024E-03 -0.4317E-05 -0.2700E-03 -0.1137E-03
    -12.480 -0.8711E-03 -0.1039E-03 -0.3087E-03 -0.3595E-03 -0.8260E-04 -0.1954E-03 -0.1851E-05 -0.1469E-03 -0.1072E-03
    -12.354 -0.9115E-04 -0.1237E-04 -0.3694E-04 -0.4846E-04 -0.1034E-04 -0.2840E-04 -0.2178E-06 -0.1849E-04 -0.1553E-04
    -12.228 -0.5288E-05 -0.6086E-06 -0.1778E-05 -0.2502E-05 -0.5090E-06 -0.1544E-05 -0.1044E-07 -0.9115E-06 -0.8428E-06
    -12.101 -0.6335E-04 -0.3309E-07 -0.5514E-07 -0.1096E-06 -0.1127E-07 -0.4558E-07 -0.4054E-08 -0.3776E-07 -0.2275E-07
    -11.975 -0.1430E-02 -0.6089E-06 -0.3578E-06 -0.1617E-05 -0.1708E-07 -0.2727E-06 -0.8638E-07 -0.5305E-06 -0.9539E-07
    -11.849 -0.1327E-01 -0.8028E-05 -0.2908E-05 -0.1995E-04 -0.2631E-06 -0.2985E-05 -0.7880E-06 -0.6343E-05 -0.1083E-05
    -11.723 -0.3672E-01 -0.3910E-04 -0.6857E-05 -0.8609E-04 -0.1711E-05 -0.1044E-04 -0.2020E-05 -0.2557E-04 -0.4276E-05
    -11.597  0.8944E-01 -0.2227E-05  0.1958E-04  0.4060E-04 -0.2927E-05  0.1417E-04  0.6129E-05  0.2259E-04  0.1808E-05
    -11.470  0.5899E+00  0.4413E-03  0.1162E-03  0.1070E-02  0.1158E-04  0.1402E-03  0.3494E-04  0.3296E-03  0.4967E-04
    -11.344  0.1027E+01  0.1155E-02  0.2059E-03  0.2529E-02  0.5696E-04  0.2821E-03  0.5413E-04  0.6665E-03  0.1340E-03
    -11.218  0.9839E+00  0.1612E-02  0.2553E-03  0.2895E-02  0.1290E-03  0.3322E-03  0.4002E-04  0.7498E-03  0.1977E-03
    -11.092  0.9401E+00  0.1954E-02  0.4219E-03  0.2604E-02  0.2365E-03  0.4116E-03  0.2239E-04  0.1033E-02  0.2509E-03
    -10.965  0.9253E+00  0.1752E-02  0.6203E-03  0.2326E-02  0.3198E-03  0.5074E-03  0.1165E-04  0.1304E-02  0.2894E-03
    -10.839  0.8227E+00  0.1680E-02  0.7943E-03  0.2136E-02  0.3338E-03  0.5019E-03  0.7620E-05  0.1237E-02  0.2896E-03
    -10.713  0.8045E+00  0.2109E-02  0.1383E-02  0.1949E-02  0.3284E-03  0.4541E-03  0.2424E-04  0.1112E-02  0.2938E-03
    -10.587  0.6572E+00  0.1355E-02  0.2803E-02  0.1344E-02  0.2731E-03  0.3576E-03  0.7278E-04  0.7331E-03  0.2419E-03
    -10.460  0.5449E+00  0.8559E-03  0.3832E-02  0.1074E-02  0.1734E-03  0.2440E-03  0.1143E-03  0.4560E-03  0.1485E-03
    -10.334  0.4420E+00  0.1354E-02  0.2525E-02  0.1055E-02  0.6969E-04  0.1148E-03  0.7919E-04  0.3506E-03  0.5559E-04
    -10.208  0.2167E+00  0.1017E-02  0.5170E-03  0.7153E-03  0.1084E-04  0.3226E-04  0.1699E-04  0.1713E-03  0.6504E-05
    -10.082  0.1268E+00  0.4848E-03 -0.1206E-03  0.6591E-03  0.8011E-06  0.1583E-04 -0.4368E-07  0.7186E-04 -0.1062E-05
     -9.955  0.1863E+00  0.7177E-03 -0.5351E-04  0.7996E-03  0.4105E-05  0.1478E-04  0.6282E-05  0.8332E-04  0.2925E-05
     -9.829  0.1628E+00  0.6558E-03 -0.2032E-05  0.5795E-03  0.3277E-05  0.7246E-05  0.1051E-04  0.6019E-04  0.3292E-05
     -9.703  0.1338E+00  0.3455E-03  0.5529E-05  0.4024E-03  0.1904E-05  0.5226E-05  0.2179E-04  0.2218E-04  0.1606E-05
     -9.577  0.1538E+00  0.3121E-03  0.8250E-05  0.3369E-03  0.1543E-05  0.5938E-05  0.3703E-04  0.1126E-04  0.1390E-05
     -9.450  0.1310E+00  0.1888E-03  0.8758E-05  0.1771E-03  0.8098E-06  0.2885E-05  0.4469E-04  0.4954E-05  0.8845E-06
     -9.324  0.8034E-01  0.3483E-04  0.6420E-05  0.7021E-04  0.3139E-06  0.3371E-06  0.3533E-04  0.6306E-06  0.1718E-06
     -9.198  0.2342E-01 -0.5314E-05  0.1935E-05  0.1384E-04  0.6839E-07 -0.1117E-06  0.1155E-04 -0.1434E-06 -0.2341E-07
     -9.072 -0.2263E-02 -0.3966E-05 -0.1821E-06 -0.4865E-05 -0.2091E-07 -0.5476E-07 -0.6607E-06 -0.1157E-06 -0.1859E-07
     -8.945 -0.2401E-02 -0.9311E-06 -0.1860E-06 -0.2264E-05 -0.1080E-07 -0.1211E-07 -0.1041E-05 -0.3257E-07 -0.4503E-08
     -8.819 -0.4151E-03 -0.9665E-07 -0.3091E-07 -0.2739E-06 -0.1358E-08 -0.1255E-08 -0.1897E-06 -0.3650E-08 -0.4806E-09
     -8.693 -0.2921E-04 -0.4360E-08 -0.2085E-08 -0.1287E-07 -0.6517E-10 -0.5696E-10 -0.1383E-07 -0.1693E-09 -0.2210E-10
     -8.567 -0.9354E-06 -0.8585E-10 -0.6387E-10 -0.2563E-09 -0.1313E-11 -0.1126E-11 -0.4539E-09 -0.3368E-11 -0.4400E-12
     -8.440 -0.1389E-07 -0.7455E-12 -0.9067E-12 -0.2233E-11 -0.1150E-13 -0.9792E-14 -0.6842E-11 -0.2935E-13 -0.3840E-14
     -8.314 -0.9514E-10 -0.2880E-14 -0.5956E-14 -0.8636E-14 -0.4448E-16 -0.3780E-16 -0.4727E-13 -0.1134E-15 -0.1484E-16
     -8.188 -0.2984E-12 -0.4980E-17 -0.1800E-16 -0.1494E-16 -0.7665E-19 -0.6522E-19 -0.1488E-15 -0.1956E-18 -0.2556E-19
     -8.062 -0.4224E-15 -0.1961E-20 -0.2465E-19 -0.5882E-20 -0.2427E-22 -0.2319E-22 -0.2115E-18 -0.6955E-22 -0.8093E-23
     -7.935  0.0000E+00  0.0000E+00  0.0000E+00  0.0000E+00  0.0000E+00  0.0000E+00  0.0000E+00  0.0000E+00  0.0000E+00
     -7.809  0.0000E+00  0.0000E+00  0.0000E+00  0.0000E+00  0.0000E+00  0.0000E+00  0.0000E+00  0.0000E+00  0.0000E+00
     -7.683  0.0000E+00  0.0000E+00  0.0000E+00  0.0000E+00  0.0000E+00  0.0000E+00  0.0000E+00  0.0000E+00  0.0000E+00
     -7.557 -0.4155E-36 -0.8748E-34 -0.2067E-33 -0.2624E-33 -0.1702E-36 -0.4280E-36 -0.4171E-36 -0.1284E-35 -0.5674E-37
     -7.431 -0.1299E-31 -0.2702E-29 -0.6379E-29 -0.8118E-29 -0.5334E-32 -0.1339E-31 -0.1301E-31 -0.3983E-31 -0.2085E-32
     -7.304 -0.1768E-27 -0.3670E-25 -0.8661E-25 -0.1104E-24 -0.7321E-28 -0.1838E-27 -0.1782E-27 -0.5441E-27 -0.3083E-28
     -7.178 -0.1087E-23 -0.2247E-21 -0.5302E-21 -0.6768E-21 -0.4551E-24 -0.1140E-23 -0.1103E-23 -0.3353E-23 -0.2120E-24
     -7.052 -0.3023E-20 -0.6217E-18 -0.1466E-17 -0.1876E-17 -0.1287E-20 -0.3211E-20 -0.3096E-20 -0.9349E-20 -0.6832E-21
     -6.926 -0.3695E-17 -0.7535E-15 -0.1775E-14 -0.2280E-14 -0.1615E-17 -0.3985E-17 -0.3827E-17 -0.1143E-16 -0.1005E-17
     -6.799 -0.2113E-14 -0.4259E-12 -0.1001E-11 -0.1294E-11 -0.9593E-15 -0.2325E-14 -0.2220E-14 -0.6535E-14 -0.7117E-15
     -6.673 -0.5541E-12 -0.1098E-09 -0.2575E-09 -0.3355E-09 -0.2666E-12 -0.6247E-12 -0.5926E-12 -0.1707E-11 -0.2361E-12
     -6.547 -0.6700E-10 -0.1297E-07 -0.3029E-07 -0.3990E-07 -0.3507E-10 -0.7779E-10 -0.7330E-10 -0.2048E-09 -0.3634E-10
     -6.421 -0.3748E-08 -0.7028E-06 -0.1631E-05 -0.2180E-05 -0.2200E-08 -0.4499E-08 -0.4212E-08 -0.1130E-07 -0.2561E-08
     -6.294 -0.9645E-07 -0.1732E-04 -0.3973E-04 -0.5414E-04 -0.6533E-07 -0.1199E-06 -0.1114E-06 -0.2837E-06 -0.8116E-07