       N       E                     dE             d eps       ncg     rms          rms(c)
DAV:   1     0.182642751365E+04    0.18264E+04   -0.10461E+05  9728   0.645E+02
DAV:   2     0.867515133229E+01   -0.18178E+04   -0.17784E+04 12800   0.209E+02
DAV:   3    -0.125165561695E+03   -0.13384E+03   -0.13341E+03 10496   0.703E+01
DAV:   4    -0.128314521729E+03   -0.31490E+01   -0.31487E+01 16896   0.125E+01
DAV:   5    -0.128326100578E+03   -0.11579E-01   -0.11579E-01 11264   0.583E-01    0.100E+01
RMM:   6    -0.123195899319E+03    0.51302E+01   -0.84081E+00 10040   0.340E+00    0.373E+00
RMM:   7    -0.122998194918E+03    0.19770E+00   -0.61017E-01 10648   0.141E+00    0.203E+00
RMM:   8    -0.123129009089E+03   -0.13081E+00   -0.14521E-01 10027   0.700E-01    0.144E+00
RMM:   9    -0.122989047663E+03    0.13996E+00   -0.60263E-02 10526   0.429E-01    0.512E-01
RMM:  10    -0.122972099996E+03    0.16948E-01   -0.86915E-03 10392   0.184E-01    0.230E-01
RMM:  11    -0.122968253036E+03    0.38470E-02   -0.20310E-03 10535   0.742E-02    0.174E-01
RMM:  12    -0.122982651715E+03   -0.14399E-01   -0.23938E-03 10099   0.804E-02    0.208E-01
RMM:  13    -0.122981717845E+03    0.93387E-03   -0.84300E-04 10608   0.452E-02    0.150E-01
RMM:  14    -0.122967278876E+03    0.14439E-01   -0.52032E-04 10447   0.329E-02    0.679E-02
RMM:  15    -0.122970459093E+03   -0.31802E-02   -0.22245E-04 10685   0.228E-02    0.110E-01
RMM:  16    -0.122966904686E+03    0.35544E-02   -0.13791E-04 10433   0.197E-02    0.521E-02
RMM:  17    -0.122966258578E+03    0.64611E-03   -0.40641E-05  9849   0.102E-02    0.170E-02
RMM:  18    -0.122966319387E+03   -0.60809E-04   -0.22859E-05  9773   0.824E-03    0.146E-02
RMM:  19    -0.122966306849E+03    0.12538E-04   -0.82675E-06  9028   0.487E-03    0.714E-03
RMM:  20    -0.122966309244E+03   -0.23942E-05    0.14911E-05  8595   0.414E-03    0.632E-03
RMM:  21    -0.122960164950E+03    0.61443E-02    0.17879E-03  7908   0.266E-03    0.400E-02
RMM:  22    -0.122965689967E+03   -0.55250E-02    0.36899E-01  6947  -0.327E-02    0.400E-02
RMM:  23    -0.123109334689E+03   -0.14364E+00   -0.26474E-01  7046   0.300E-02    0.316E-01
RMM:  24    -0.123087582569E+03    0.21752E-01   -0.37505E+00  8637   0.319E-01    0.370E-01
RMM:  25    -0.123232599475E+03   -0.14502E+00   -0.42155E+00  9935   0.347E-01    0.550E-01
RMM:  26    -0.123135178097E+03    0.97421E-01   -0.10607E+01 10216   0.686E-01    0.466E-01
RMM:  27    -0.123262546286E+03   -0.12737E+00   -0.82474E+00 10564   0.513E-01    0.625E-01
RMM:  28    -0.123215901401E+03    0.46645E-01   -0.12105E+01 10136   0.755E-01    0.484E-01
RMM:  29    -0.123135833067E+03    0.80068E-01   -0.59778E+00 10177   0.421E-01    0.386E-01
RMM:  30    -0.123114277251E+03    0.21556E-01   -0.69444E+00  9879   0.446E-01    0.397E-01
RMM:  31    -0.123043279476E+03    0.70998E-01   -0.52766E+00  9618   0.343E-01    0.264E-01
RMM:  32    -0.123103361405E+03   -0.60082E-01   -0.58866E+00  9353   0.345E-01    0.326E-01
RMM:  33    -0.123036080059E+03    0.67281E-01   -0.73242E+00  8778   0.415E-01    0.232E-01
RMM:  34    -0.123088386936E+03   -0.52307E-01   -0.40322E+00  8493   0.262E-01    0.364E-01
RMM:  35    -0.123070180655E+03    0.18206E-01   -0.93305E+00  9178   0.492E-01    0.171E-01
RMM:  36    -0.123095777959E+03   -0.25597E-01   -0.29429E+00  9270   0.198E-01    0.256E-01
RMM:  37    -0.123212390963E+03   -0.11661E+00   -0.43209E+00  8558   0.283E-01    0.378E-01
RMM:  38    -0.123201110160E+03    0.11281E-01   -0.73856E+00  9060   0.454E-01    0.381E-01
RMM:  39    -0.123117816638E+03    0.83294E-01   -0.77436E+00  9219   0.468E-01    0.341E-01
RMM:  40    -0.123141774032E+03   -0.23957E-01   -0.80545E+00  8979   0.457E-01    0.373E-01
RMM:  41    -0.123080812838E+03    0.60961E-01   -0.60770E+00  8721   0.400E-01    0.361E-01
RMM:  42    -0.123106200646E+03   -0.25388E-01   -0.83536E+00  9227   0.481E-01    0.278E-01
RMM:  43    -0.123218001312E+03   -0.11180E+00   -0.53666E+00  9227   0.325E-01    0.586E-01
RMM:  44    -0.123168128193E+03    0.49873E-01   -0.13455E+01  8937   0.789E-01    0.429E-01
RMM:  45    -0.123239012864E+03   -0.70885E-01   -0.10819E+01  9167   0.591E-01    0.382E-01
RMM:  46    -0.123332498292E+03   -0.93485E-01   -0.82834E+00  9294   0.493E-01    0.456E-01
RMM:  47    -0.123428425148E+03   -0.95927E-01   -0.10117E+01  9067   0.591E-01    0.617E-01
RMM:  48    -0.123138593517E+03    0.28983E+00   -0.18012E+01  9321   0.975E-01    0.366E-01
RMM:  49    -0.123079185369E+03    0.59408E-01   -0.93179E+00  9209   0.514E-01    0.269E-01
RMM:  50    -0.123099299430E+03   -0.20114E-01   -0.59359E+00  9106   0.354E-01    0.260E-01
RMM:  51    -0.123300373192E+03   -0.20107E+00   -0.61217E+00  9022   0.349E-01    0.540E-01
RMM:  52    -0.123155303648E+03    0.14507E+00   -0.14308E+01  8898   0.787E-01    0.438E-01
RMM:  53    -0.123215286422E+03   -0.59983E-01   -0.11133E+01  9206   0.606E-01    0.484E-01
RMM:  54    -0.123179763373E+03    0.35523E-01   -0.12889E+01  8891   0.697E-01    0.373E-01
RMM:  55    -0.123078211040E+03    0.10155E+00   -0.84040E+00  9116   0.462E-01    0.345E-01
RMM:  56    -0.123107831246E+03   -0.29620E-01   -0.79276E+00  9040   0.451E-01    0.338E-01
RMM:  57    -0.123095095834E+03    0.12735E-01   -0.79023E+00  8600   0.442E-01    0.343E-01
RMM:  58    -0.123133798712E+03   -0.38703E-01   -0.82628E+00  8745   0.467E-01    0.323E-01
RMM:  59    -0.123154704553E+03   -0.20906E-01   -0.86485E+00  8581   0.455E-01    0.445E-01
RMM:  60    -0.123145607939E+03    0.90966E-02   -0.11495E+01  8613   0.632E-01    0.244E-01
RMM:  61    -0.123121567976E+03    0.24040E-01   -0.55730E+00  9023   0.310E-01    0.351E-01
RMM:  62    -0.123071974033E+03    0.49594E-01   -0.80348E+00  8657   0.468E-01    0.264E-01
RMM:  63    -0.123090340798E+03   -0.18367E-01   -0.62428E+00  8631   0.341E-01    0.323E-01
RMM:  64    -0.123258582964E+03   -0.16824E+00   -0.75789E+00  8467   0.432E-01    0.443E-01
RMM:  65    -0.123113884831E+03    0.14470E+00   -0.11101E+01  8873   0.605E-01    0.360E-01
RMM:  66    -0.123232004204E+03   -0.11812E+00   -0.79042E+00 10768   0.470E-01    0.501E-01
RMM:  67    -0.123157037725E+03    0.74966E-01   -0.12266E+01  9903   0.691E-01    0.466E-01
RMM:  68    -0.123232664168E+03   -0.75626E-01   -0.11495E+01  9978   0.648E-01    0.415E-01
RMM:  69    -0.123190421499E+03    0.42243E-01   -0.95346E+00  9529   0.544E-01    0.398E-01
RMM:  70    -0.123131655897E+03    0.58766E-01   -0.10469E+01  9914   0.574E-01    0.285E-01
RMM:  71    -0.123129331965E+03    0.23239E-02   -0.65388E+00 10462   0.373E-01    0.345E-01
RMM:  72    -0.123197611138E+03   -0.68279E-01   -0.92841E+00  9777   0.490E-01    0.481E-01
RMM:  73    -0.123140959483E+03    0.56652E-01   -0.12519E+01  9249   0.680E-01    0.393E-01
RMM:  74    -0.123157806336E+03   -0.16847E-01   -0.98825E+00 10125   0.546E-01    0.451E-01
RMM:  75    -0.123165587424E+03   -0.77811E-02   -0.11359E+01  9082   0.619E-01    0.535E-01
RMM:  76    -0.123228247129E+03   -0.62660E-01   -0.13184E+01 10210   0.762E-01    0.459E-01
RMM:  77    -0.123139068369E+03    0.89179E-01   -0.13005E+01  9461   0.679E-01    0.496E-01
RMM:  78    -0.123229850304E+03   -0.90782E-01   -0.13450E+01  9544   0.737E-01    0.456E-01
RMM:  79    -0.123113948531E+03    0.11590E+00   -0.11598E+01  9653   0.640E-01    0.385E-01
RMM:  80    -0.123271824611E+03   -0.15788E+00   -0.88877E+00  9514   0.517E-01
   1 F= -.12327182E+03 E0= -.12328185E+03  d E =-.123272E+03
       N       E                     dE             d eps       ncg     rms          rms(c)
DAV:   1    -0.122965951223E+03    0.14800E+00   -0.78928E+00  9728   0.107E+00    0.629E-02
RMM:   2    -0.122970963921E+03   -0.50127E-02   -0.51794E-03  9859   0.114E-01    0.143E-01
RMM:   3    -0.122970984799E+03   -0.20878E-04   -0.50793E-04 11173   0.467E-02    0.115E-01
RMM:   4    -0.122967633367E+03    0.33514E-02   -0.18800E-04  9874   0.157E-02    0.812E-02
RMM:   5    -0.122966188493E+03    0.14449E-02   -0.73537E-05 10464   0.120E-02    0.283E-02
RMM:   6    -0.122966049515E+03    0.13898E-03   -0.17201E-05  9727   0.580E-03    0.130E-02
RMM:   7    -0.122966064728E+03   -0.15213E-04   -0.84668E-06  8976   0.387E-03    0.118E-02
RMM:   8    -0.122966064275E+03    0.45331E-06   -0.57112E-06  8698   0.302E-03
   2 F= -.12296606E+03 E0= -.12298356E+03  d E =0.305760E+00
       N       E                     dE             d eps       ncg     rms          rms(c)
DAV:   1    -0.122966190339E+03   -0.12561E-03   -0.12744E-02 14592   0.153E-01    0.115E-02
RMM:   2    -0.122966327822E+03   -0.13748E-03   -0.44857E-04  9797   0.349E-02    0.193E-02
RMM:   3    -0.122966445027E+03   -0.11721E-03   -0.33387E-05 11123   0.127E-02    0.292E-02
RMM:   4    -0.122966284680E+03    0.16035E-03   -0.60745E-06  8472   0.305E-03    0.160E-02
RMM:   5    -0.122966230199E+03    0.54480E-04   -0.24755E-06  8419   0.238E-03    0.362E-03
RMM:   6    -0.122966230492E+03   -0.29244E-06   -0.48492E-07  7000   0.130E-03
   3 F= -.12296623E+03 E0= -.12298375E+03  d E =0.305594E+00
       N       E                     dE             d eps       ncg     rms          rms(c)
DAV:   1    -0.122966289227E+03   -0.59028E-04   -0.35237E-03 14592   0.787E-02    0.569E-03
RMM:   2    -0.122966308111E+03   -0.18883E-04   -0.10878E-04  9865   0.175E-02    0.680E-03
RMM:   3    -0.122966360043E+03   -0.51933E-04   -0.84295E-06 10029   0.624E-03    0.154E-02
RMM:   4    -0.122966314420E+03    0.45623E-04   -0.11460E-06  7226   0.179E-03    0.780E-03
RMM:   5    -0.122966300827E+03    0.13593E-04   -0.62613E-07  7105   0.133E-03    0.250E-03
RMM:   6    -0.122966301082E+03   -0.25426E-06   -0.24785E-07  6978   0.993E-04
   4 F= -.12296630E+03 E0= -.12298383E+03  d E =0.305524E+00
       N       E                     dE             d eps       ncg     rms          rms(c)
DAV:   1    -0.122966349338E+03   -0.48510E-04   -0.95803E-03 14592   0.129E-01    0.936E-03
RMM:   2    -0.122966380414E+03   -0.31076E-04   -0.28921E-04  9957   0.290E-02    0.765E-03
RMM:   3    -0.122966505471E+03   -0.12506E-03   -0.21677E-05 10792   0.983E-03    0.227E-02
RMM:   4    -0.122966385674E+03    0.11980E-03   -0.22046E-06  7753   0.223E-03    0.814E-03
RMM:   5    -0.122966377452E+03    0.82218E-05   -0.99132E-07  7267   0.162E-03    0.516E-03
RMM:   6    -0.122966372987E+03    0.44648E-05   -0.46013E-07  6996   0.124E-03    0.247E-03
RMM:   7    -0.122966373916E+03   -0.92921E-06   -0.45770E-07  7001   0.114E-03
   5 F= -.12296637E+03 E0= -.12298393E+03  d E =0.305451E+00
       N       E                     dE             d eps       ncg     rms          rms(c)
DAV:   1    -0.122966384630E+03   -0.11642E-04   -0.23984E-03 14592   0.653E-02    0.477E-03
RMM:   2    -0.122966394137E+03   -0.95076E-05   -0.75532E-05  9827   0.146E-02    0.434E-03
RMM:   3    -0.122966456622E+03   -0.62485E-04   -0.53985E-06  9421   0.516E-03    0.156E-02
RMM:   4    -0.122966391180E+03    0.65442E-04   -0.94495E-07  7082   0.177E-03    0.241E-03
RMM:   5    -0.122966391769E+03   -0.58882E-06   -0.32932E-07  6964   0.119E-03
   6 F= -.12296639E+03 E0= -.12298395E+03  d E =0.305433E+00
       N       E                     dE             d eps       ncg     rms          rms(c)
DAV:   1    -0.122966495255E+03   -0.10407E-03   -0.86060E-02 12800   0.333E-01    0.216E-02
RMM:   2    -0.122966701831E+03   -0.20658E-03   -0.20228E-03 10013   0.747E-02    0.200E-02
RMM:   3    -0.122966774296E+03   -0.72465E-04   -0.19952E-04 11609   0.246E-02    0.229E-02
RMM:   4    -0.122966707867E+03    0.66429E-04   -0.84509E-06  9126   0.429E-03    0.149E-02
RMM:   5    -0.122966752070E+03   -0.44203E-04   -0.30424E-06  8514   0.255E-03    0.195E-02
RMM:   6    -0.122966663223E+03    0.88847E-04   -0.18539E-06  7715   0.187E-03    0.674E-03
RMM:   7    -0.122966665654E+03   -0.24306E-05   -0.12967E-06  7392   0.183E-03    0.526E-03
RMM:   8    -0.122966665208E+03    0.44564E-06   -0.12645E-06  7270   0.181E-03
   7 F= -.12296667E+03 E0= -.12298420E+03  d E =-.273439E-03
       N       E                     dE             d eps       ncg     rms          rms(c)
DAV:   1    -0.122966608797E+03    0.56857E-04   -0.66794E-02 13696   0.296E-01    0.190E-02
RMM:   2    -0.122966755659E+03   -0.14686E-03   -0.15665E-03 10008   0.640E-02    0.166E-02
RMM:   3    -0.122966877688E+03   -0.12203E-03   -0.14987E-04 11605   0.216E-02    0.240E-02
RMM:   4    -0.122966775437E+03    0.10225E-03   -0.48974E-06  8784   0.341E-03    0.139E-02
RMM:   5    -0.122966761009E+03    0.14428E-04   -0.24120E-06  8141   0.225E-03    0.113E-02
RMM:   6    -0.122966739881E+03    0.21129E-04   -0.14261E-06  7440   0.172E-03    0.645E-03
RMM:   7    -0.122966740876E+03   -0.99493E-06   -0.11694E-06  7285   0.177E-03
   8 F= -.12296674E+03 E0= -.12298424E+03  d E =-.349107E-03
       N       E                     dE             d eps       ncg     rms          rms(c)
DAV:   1    -0.122966783049E+03   -0.43168E-04   -0.37279E-02 14336   0.242E-01    0.132E-02
RMM:   2    -0.122966912719E+03   -0.12967E-03   -0.86259E-04  9980   0.525E-02    0.166E-02
RMM:   3    -0.122966944691E+03   -0.31972E-04   -0.86648E-05 11506   0.176E-02    0.201E-02
RMM:   4    -0.122966876793E+03    0.67898E-04   -0.41576E-06  8579   0.325E-03    0.915E-03
RMM:   5    -0.122966871782E+03    0.50113E-05   -0.90823E-07  7232   0.174E-03    0.871E-03
RMM:   6    -0.122966860967E+03    0.10814E-04   -0.68000E-07  7032   0.151E-03    0.419E-03
RMM:   7    -0.122966861547E+03   -0.57913E-06   -0.78103E-07  7240   0.154E-03
   9 F= -.12296686E+03 E0= -.12298437E+03  d E =-.120671E-03
       N       E                     dE             d eps       ncg     rms          rms(c)
DAV:   1    -0.122966838140E+03    0.22828E-04   -0.28973E-02 13568   0.213E-01    0.115E-02
RMM:   2    -0.122966959592E+03   -0.12145E-03   -0.66768E-04 10014   0.458E-02    0.168E-02
RMM:   3    -0.122967160362E+03   -0.20077E-03   -0.65476E-05 11465   0.154E-02    0.319E-02
RMM:   4    -0.122966905246E+03    0.25512E-03   -0.43622E-06  8560   0.304E-03    0.781E-03
RMM:   5    -0.122966903248E+03    0.19983E-05   -0.12454E-06  7571   0.187E-03    0.628E-03
RMM:   6    -0.122966899816E+03    0.34315E-05   -0.74192E-07  7068   0.142E-03    0.488E-03
RMM:   7    -0.122966899044E+03    0.77203E-06   -0.58661E-07  7074   0.135E-03
  10 F= -.12296690E+03 E0= -.12298441E+03  d E =-.158169E-03
