 vasp.5.4.4.18Apr17-6-g9f103f2a35 (build Aug 29 2022 10:07:22) complex          
  
 executed on           IFC91_ompi date 2022.09.30  20:31:06
 running on  512 total cores
 distrk:  each k-point on  512 cores,    1 groups
 distr:  one band on NCORES_PER_BAND=   4 cores,  128 groups


--------------------------------------------------------------------------------------------------------


 INCAR:
 POTCAR:   PAW_PBE Bi_d 06Sep2000                 
 POTCAR:   PAW_PBE Se 06Sep2000                   

 ----------------------------------------------------------------------------- 
|                                                                             |
|           W    W    AA    RRRRR   N    N  II  N    N   GGGG   !!!           |
|           W    W   A  A   R    R  NN   N  II  NN   N  G    G  !!!           |
|           W    W  A    A  R    R  N N  N  II  N N  N  G       !!!           |
|           W WW W  AAAAAA  RRRRR   N  N N  II  N  N N  G  GGG   !            |
|           WW  WW  A    A  R   R   N   NN  II  N   NN  G    G                |
|           W    W  A    A  R    R  N    N  II  N    N   GGGG   !!!           |
|                                                                             |
|      For optimal performance we recommend to set                            |
|        NCORE= 4 - approx SQRT( number of cores)                             |
|      NCORE specifies how many cores store one orbital (NPAR=cpu/NCORE).     |
|      This setting can  greatly improve the performance of VASP for DFT.     |
|      The default,   NCORE=1            might be grossly inefficient         |
|      on modern multi-core architectures or massively parallel machines.     |
|      Do your own testing !!!!                                               |
|      Unfortunately you need to use the default for GW and RPA calculations. |
|      (for HF NCORE is supported but not extensively tested yet)             |
|                                                                             |
 ----------------------------------------------------------------------------- 

 POTCAR:   PAW_PBE Bi_d 06Sep2000                 
   VRHFIN =Bi:                                                                  
   LEXCH  = PE                                                                  
   EATOM  =  1958.6135 eV,  143.9540 Ry                                         
                                                                                
   TITEL  = PAW_PBE Bi_d 06Sep2000                                              
   LULTRA =        F    use ultrasoft PP ?                                      
   IUNSCR =        1    unscreen: 0-lin 1-nonlin 2-no                           
   RPACOR =    2.200    partial core radius                                     
   POMASS =  208.980; ZVAL   =   15.000    mass and valenz                      
   RCORE  =    2.500    outmost cutoff radius                                   
   RWIGS  =    3.090; RWIGS  =    1.635    wigner-seitz radius (au A)           
   ENMAX  =  242.851; ENMIN  =  182.138 eV                                      
   ICORE  =        3    local potential                                         
   LCOR   =        T    correct aug charges                                     
   LPAW   =        T    paw PP                                                  
   EAUG   =  442.899                                                            
   DEXC   =    -.001                                                            
   RMAX   =    2.959    core radius for proj-oper                               
   RAUG   =    1.300    factor for augmentation sphere                          
   RDEP   =    2.650    radius for radial grids                                 
   QCUT   =   -4.225; QGAM   =    8.450    optimization parameters              
                                                                                
   Description                                                                  
     l     E      TYP  RCUT    TYP  RCUT                                        
     2   .000     23  2.500                                                     
     2  -.100     23  2.500                                                     
     0   .000     23  2.500                                                     
     0   .500     23  2.500                                                     
     1   .000     23  2.500                                                     
     1  1.000     23  2.500                                                     
     3  -.100      7  2.500                                                     
  local pseudopotential read in
  partial core-charges read in
  atomic valenz-charges read in
  non local Contribution for L=           2  read in
    real space projection operators read in
  non local Contribution for L=           2  read in
    real space projection operators read in
  non local Contribution for L=           0  read in
    real space projection operators read in
  non local Contribution for L=           0  read in
    real space projection operators read in
  non local Contribution for L=           1  read in
    real space projection operators read in
  non local Contribution for L=           1  read in
    real space projection operators read in
    PAW grid and wavefunctions read in
 
   number of l-projection  operators is LMAX  =           6
   number of lm-projection operators is LMMAX =          18
 
 POTCAR:   PAW_PBE Se 06Sep2000                   
   VRHFIN =Se: s2p4                                                             
   LEXCH  = PE                                                                  
   EATOM  =   256.9644 eV,   18.8864 Ry                                         
                                                                                
   TITEL  = PAW_PBE Se 06Sep2000                                                
   LULTRA =        F    use ultrasoft PP ?                                      
   IUNSCR =        1    unscreen: 0-lin 1-nonlin 2-no                           
   RPACOR =    1.900    partial core radius                                     
   POMASS =   78.960; ZVAL   =    6.000    mass and valenz                      
   RCORE  =    2.100    outmost cutoff radius                                   
   RWIGS  =    2.200; RWIGS  =    1.164    wigner-seitz radius (au A)           
   ENMAX  =  211.534; ENMIN  =  158.651 eV                                      
   ICORE  =        3    local potential                                         
   LCOR   =        T    correct aug charges                                     
   LPAW   =        T    paw PP                                                  
   EAUG   =  446.842                                                            
   DEXC   =    -.031                                                            
   RMAX   =    3.170    core radius for proj-oper                               
   RAUG   =    1.300    factor for augmentation sphere                          
   RDEP   =    2.177    radius for radial grids                                 
   QCUT   =   -3.943; QGAM   =    7.886    optimization parameters              
                                                                                
   Description                                                                  
     l     E      TYP  RCUT    TYP  RCUT                                        
     0   .000     23  2.100                                                     
     0   .000     23  2.100                                                     
     1   .000     23  2.100                                                     
     1   .000     23  2.100                                                     
     2   .000     23  2.100                                                     
     3  -.100      7  2.100                                                     
  local pseudopotential read in
  partial core-charges read in
  atomic valenz-charges read in
  non local Contribution for L=           0  read in
    real space projection operators read in
  non local Contribution for L=           0  read in
    real space projection operators read in
  non local Contribution for L=           1  read in
    real space projection operators read in
  non local Contribution for L=           1  read in
    real space projection operators read in
  non local Contribution for L=           2  read in
    real space projection operators read in
    PAW grid and wavefunctions read in
 
   number of l-projection  operators is LMAX  =           5
   number of lm-projection operators is LMMAX =          13
 

 ----------------------------------------------------------------------------- 
|                                                                             |
|  ADVICE TO THIS USER RUNNING 'VASP/VAMP'   (HEAR YOUR MASTER'S VOICE ...):  |
|                                                                             |
|      You have a (more or less) 'large supercell' and for larger cells       |
|      it might be more efficient to use real space projection operators      |
|      So try LREAL= Auto  in the INCAR   file.                               |
|      Mind: If you want to do a very accurate calculations keep the          |
|      reciprocal projection scheme          (i.e. LREAL=.FALSE.)             |
|                                                                             |
 ----------------------------------------------------------------------------- 

 PAW_PBE Bi_d 06Sep2000                 :
 energy of atom  1       EATOM=-1958.6135
 kinetic energy error for atom=    0.0516 (will be added to EATOM!!)
 PAW_PBE Se 06Sep2000                   :
 energy of atom  2       EATOM= -256.9644
 kinetic energy error for atom=    0.0040 (will be added to EATOM!!)
 
 
 POSCAR: Bi12 Se18                               
  positions in direct lattice
  No initial velocities read in
 exchange correlation table for  LEXCH =        8
   RHO(1)=    0.500       N(1)  =     2000
   RHO(2)=  100.500       N(2)  =     4000
 


--------------------------------------------------------------------------------------------------------


 ion  position               nearest neighbor table
   1  0.333  0.667  0.224-  14 2.88  14 2.88  14 2.88  13 3.11  13 3.11  13 3.11
   2  0.333  0.667  0.026-  15 2.88  15 2.88  15 2.88  16 3.11  16 3.11  16 3.11
   3  0.000  0.000  0.057-  17 2.88  17 2.88  17 2.88  16 3.11  16 3.11  16 3.11
   4  0.000  0.000  0.109-  18 2.88  18 2.88  18 2.88  19 3.11  19 3.11  19 3.11
   5  0.667  0.333  0.141-  20 2.88  20 2.88  20 2.88  19 3.11  19 3.11  19 3.11
   6  0.667  0.333  0.193-  21 2.88  21 2.88  21 2.88  13 3.11  13 3.11  13 3.11
   7  0.333  0.667  0.474-  23 2.88  23 2.88  23 2.88  22 3.11  22 3.11  22 3.11
   8  0.333  0.667  0.276-  24 2.88  24 2.88  24 2.88  25 3.11  25 3.11  25 3.11
   9  0.000  0.000  0.307-  26 2.88  26 2.88  26 2.88  25 3.11  25 3.11  25 3.11
  10  0.000  0.000  0.359-  27 2.88  27 2.88  27 2.88  28 3.11  28 3.11  28 3.11
  11  0.667  0.333  0.391-  29 2.88  29 2.88  29 2.88  28 3.11  28 3.11  28 3.11
  12  0.667  0.333  0.443-  30 2.88  30 2.88  30 2.88  22 3.11  22 3.11  22 3.11
  13  0.000  0.000  0.208-   1 3.11   6 3.11   1 3.11   1 3.11   6 3.11   6 3.11
  14  0.667  0.333  0.237-   1 2.88   1 2.88   1 2.88
  15  0.000  0.000  0.013-   2 2.88   2 2.88   2 2.88
  16  0.667  0.333  0.042-   2 3.11   2 3.11   2 3.11   3 3.11   3 3.11   3 3.11
  17  0.333  0.667  0.070-   3 2.88   3 2.88   3 2.88
  18  0.667  0.333  0.097-   4 2.88   4 2.88   4 2.88
  19  0.333  0.667  0.125-   5 3.11   5 3.11   5 3.11   4 3.11   4 3.11   4 3.11
  20  0.000  0.000  0.153-   5 2.88   5 2.88   5 2.88
  21  0.333  0.667  0.180-   6 2.88   6 2.88   6 2.88
  22  0.000  0.000  0.458-   7 3.11  12 3.11   7 3.11   7 3.11  12 3.11  12 3.11
  23  0.667  0.333  0.487-   7 2.88   7 2.88   7 2.88
  24  0.000  0.000  0.263-   8 2.88   8 2.88   8 2.88
  25  0.667  0.333  0.292-   8 3.11   8 3.11   8 3.11   9 3.11   9 3.11   9 3.11
  26  0.333  0.667  0.320-   9 2.88   9 2.88   9 2.88
  27  0.667  0.333  0.347-  10 2.88  10 2.88  10 2.88
  28  0.333  0.667  0.375-  11 3.11  11 3.11  11 3.11  10 3.11  10 3.11  10 3.11
  29  0.000  0.000  0.403-  11 2.88  11 2.88  11 2.88
  30  0.333  0.667  0.430-  12 2.88  12 2.88  12 2.88
 
  LATTYP: Found a hexagonal cell.
 ALAT       =     4.1925838446
 C/A-ratio  =    29.7425919902
  
  Lattice vectors:
  
 A1 = (   4.1925840252,   0.0000000000,   0.0000000000)
 A2 = (  -2.0962921931,   3.6308841690,   0.0000000000)
 A3 = (   0.0000000000,   0.0000000000, 124.6983106747)


Analysis of symmetry for initial positions (statically):
=====================================================================
 Subroutine PRICEL returns:
 Original cell was already a primitive cell.
 

 Routine SETGRP: Setting up the symmetry group for a 
 hexagonal supercell.


 Subroutine GETGRP returns: Found 12 space group operations
 (whereof  6 operations were pure point group operations)
 out of a pool of 24 trial point group operations.


The static configuration has the point symmetry C_3v.
 The point group associated with its full space group is D_3d.


Analysis of symmetry for dynamics (positions and initial velocities):
=====================================================================
 Subroutine PRICEL returns:
 Original cell was already a primitive cell.
 

 Routine SETGRP: Setting up the symmetry group for a 
 hexagonal supercell.


 Subroutine GETGRP returns: Found 12 space group operations
 (whereof  6 operations were pure point group operations)
 out of a pool of 24 trial point group operations.


The dynamic configuration has the point symmetry C_3v.
 The point group associated with its full space group is D_3d.


Analysis of constrained symmetry for selective dynamics:
=====================================================================
 Subroutine PRICEL returns:
 Original cell was already a primitive cell.
 

 Routine SETGRP: Setting up the symmetry group for a 
 hexagonal supercell.


 Subroutine GETGRP returns: Found  6 space group operations
 (whereof  6 operations were pure point group operations)
 out of a pool of 24 trial point group operations.


The constrained configuration has the point symmetry C_3v.


 Subroutine INISYM returns: Found  6 space group operations
 (whereof  6 operations are pure point group operations),
 and found     1 'primitive' translations

 
 
 KPOINTS: k-point density of [50, 50, 50]/[a, b, c

Automatic generation of k-mesh.
Space group operators:
 irot       det(A)        alpha          n_x          n_y          n_z        tau_x        tau_y        tau_z
    1     1.000000     0.000001     1.000000     0.000000     0.000000     0.000000     0.000000     0.000000
    2     1.000000   120.000000     0.000000     0.000000    -1.000000     0.000000     0.000000     0.000000
    3     1.000000   120.000000     0.000000    -0.000000     1.000000     0.000000     0.000000     0.000000
    4    -1.000000   180.000000     1.000000     0.000000     0.000000     0.000000     0.000000     0.000000
    5    -1.000000   180.000000     0.500000    -0.866025     0.000000     0.000000     0.000000     0.000000
    6    -1.000000   180.000000    -0.500000    -0.866025     0.000000     0.000000     0.000000     0.000000
 
 Subroutine IBZKPT returns following result:
 ===========================================
 
 Found     19 irreducible k-points:
 
 Following reciprocal coordinates:
            Coordinates               Weight
  0.000000  0.000000  0.000000      1.000000
  0.083333 -0.000000  0.000000      6.000000
  0.166667  0.000000  0.000000      6.000000
  0.250000 -0.000000  0.000000      6.000000
  0.333333 -0.000000  0.000000      6.000000
  0.416667  0.000000  0.000000      6.000000
  0.500000 -0.000000  0.000000      3.000000
  0.083333  0.083333  0.000000      6.000000
  0.166667  0.083333  0.000000     12.000000
  0.250000  0.083333  0.000000     12.000000
  0.333333  0.083333  0.000000     12.000000
  0.416667  0.083333  0.000000     12.000000
  0.166667  0.166667  0.000000      6.000000
  0.250000  0.166667  0.000000     12.000000
  0.333333  0.166667  0.000000     12.000000
  0.416667  0.166667  0.000000      6.000000
  0.250000  0.250000  0.000000      6.000000
  0.333333  0.250000  0.000000     12.000000
  0.333333  0.333333  0.000000      2.000000
 
 Following cartesian coordinates:
            Coordinates               Weight
  0.000000  0.000000  0.000000      1.000000
  0.019876  0.011476  0.000000      6.000000
  0.039753  0.022951  0.000000      6.000000
  0.059629  0.034427  0.000000      6.000000
  0.079505  0.045903  0.000000      6.000000
  0.099382  0.057378  0.000000      6.000000
  0.119258  0.068854  0.000000      3.000000
  0.019876  0.034427  0.000000      6.000000
  0.039753  0.045903  0.000000     12.000000
  0.059629  0.057378  0.000000     12.000000
  0.079505  0.068854  0.000000     12.000000
  0.099382  0.080329  0.000000     12.000000
  0.039753  0.068854  0.000000      6.000000
  0.059629  0.080329  0.000000     12.000000
  0.079505  0.091805  0.000000     12.000000
  0.099382  0.103281  0.000000      6.000000
  0.059629  0.103281  0.000000      6.000000
  0.079505  0.114756  0.000000     12.000000
  0.079505  0.137708  0.000000      2.000000
 


--------------------------------------------------------------------------------------------------------




 Dimension of arrays:
   k-points           NKPTS =     19   k-points in BZ     NKDIM =     19   number of bands    NBANDS=    256
   number of dos      NEDOS =    301   number of ions     NIONS =     30
   non local maximal  LDIM  =      6   non local SUM 2l+1 LMDIM =     18
   total plane-waves  NPLWV = 414720
   max r-space proj   IRMAX =      1   max aug-charges    IRDMAX=   9854
   dimension x,y,z NGX =    24 NGY =   24 NGZ =  720
   dimension x,y,z NGXF=    48 NGYF=   48 NGZF= 1440
   support grid    NGXF=    48 NGYF=   48 NGZF= 1440
   ions per type =              12  18
   NGX,Y,Z   is equivalent  to a cutoff of   9.52,  9.52,  9.60 a.u.
   NGXF,Y,Z  is equivalent  to a cutoff of  19.03, 19.03, 19.20 a.u.

 SYSTEM =  Tetradymite Slab                        
 POSCAR =  Bi12 Se18                               

 Startparameter for this run:
   NWRITE =      2    write-flag & timer
   PREC   = accura    normal or accurate (medium, high low for compatibility)
   ISTART =      0    job   : 0-new  1-cont  2-samecut
   ICHARG =      2    charge: 1-file 2-atom 10-const
   ISPIN  =      1    spin polarized calculation?
   LNONCOLLINEAR =      F non collinear calculations
   LSORBIT =      F    spin-orbit coupling
   INIWAV =      1    electr: 0-lowe 1-rand  2-diag
   LASPH  =      F    aspherical Exc in radial PAW
   METAGGA=      F    non-selfconsistent MetaGGA calc.

 Electronic Relaxation 1
   ENCUT  =  300.0 eV  22.05 Ry    4.70 a.u.   5.92  5.92176.11*2*pi/ulx,y,z
   ENINI  =  300.0     initial cutoff
   ENAUG  =  446.8 eV  augmentation charge cutoff
   NELM   =     80;   NELMIN=  2; NELMDL= -5     # of ELM steps 
   EDIFF  = 0.1E-05   stopping-criterion for ELM
   LREAL  =      F    real-space projection
   NLSPLINE    = F    spline interpolate recip. space projectors
   LCOMPAT=      F    compatible to vasp.4.4
   GGA_COMPAT  = T    GGA compatible to vasp.4.4-vasp.4.6
   LMAXPAW     = -100 max onsite density
   LMAXMIX     =    2 max onsite mixed and CHGCAR
   VOSKOWN=      0    Vosko Wilk Nusair interpolation
   ROPT   =    0.00000   0.00000
 Ionic relaxation
   EDIFFG = -.1E-01   stopping-criterion for IOM
   NSW    =     20    number of steps for IOM
   NBLOCK =      1;   KBLOCK =     20    inner block; outer block 
   IBRION =      2    ionic relax: 0-MD 1-quasi-New 2-CG
   NFREE  =      1    steps in history (QN), initial steepest desc. (CG)
   ISIF   =      2    stress and relaxation
   IWAVPR =     11    prediction:  0-non 1-charg 2-wave 3-comb
   ISYM   =      2    0-nonsym 1-usesym 2-fastsym
   LCORR  =      T    Harris-Foulkes like correction to forces

   POTIM  = 0.5000    time-step for ionic-motion
   TEIN   =    0.0    initial temperature
   TEBEG  =    0.0;   TEEND  =   0.0 temperature during run
   SMASS  =  -3.00    Nose mass-parameter (am)
   estimated Nose-frequenzy (Omega)   =  0.10E-29 period in steps =****** mass=  -0.402E-27a.u.
   SCALEE = 1.0000    scale energy and forces
   NPACO  =    256;   APACO  = 16.0  distance and # of slots for P.C.
   PSTRESS=    0.0 pullay stress

  Mass of Ions in am
   POMASS = 208.98 78.96
  Ionic Valenz
   ZVAL   =  15.00  6.00
  Atomic Wigner-Seitz radii
   RWIGS  =  -1.00 -1.00
  virtual crystal weights 
   VCA    =   1.00  1.00
   NELECT =     288.0000    total number of electrons
   NUPDOWN=      -1.0000    fix difference up-down

 DOS related values:
   EMIN   =  10.00;   EMAX   =-10.00  energy-range for DOS
   EFERMI =   0.00
   ISMEAR =     1;   SIGMA  =   0.20  broadening in eV -4-tet -1-fermi 0-gaus

 Electronic relaxation 2 (details)
   IALGO  =     68    algorithm
   LDIAG  =      T    sub-space diagonalisation (order eigenvalues)
   LSUBROT=      F    optimize rotation matrix (better conditioning)
   TURBO    =      0    0=normal 1=particle mesh
   IRESTART =      0    0=no restart 2=restart with 2 vectors
   NREBOOT  =      0    no. of reboots
   NMIN     =      0    reboot dimension
   EREF     =   0.00    reference energy to select bands
   IMIX   =      4    mixing-type and parameters
     AMIX     =   0.40;   BMIX     =  1.00
     AMIX_MAG =   1.60;   BMIX_MAG =  1.00
     AMIN     =   0.10
     WC   =   100.;   INIMIX=   1;  MIXPRE=   1;  MAXMIX= -45

 Intra band minimization:
   WEIMIN = 0.0010     energy-eigenvalue tresh-hold
   EBREAK =  0.98E-09  absolut break condition
   DEPER  =   0.30     relativ break condition  

   TIME   =   0.40     timestep for ELM

  volume/ion in A,a.u.               =      63.28       427.00
  Fermi-wavevector in a.u.,A,eV,Ry     =   0.873147  1.650009 10.372889  0.762386
  Thomas-Fermi vector in A             =   1.992497
 
 Write flags
   LWAVE        =      T    write WAVECAR
   LDOWNSAMPLE  =      F    k-point downsampling of WAVECAR
   LCHARG       =      T    write CHGCAR
   LVTOT        =      F    write LOCPOT, total local potential
   LVHAR        =      F    write LOCPOT, Hartree potential only
   LELF         =      F    write electronic localiz. function (ELF)
   LORBIT       =     11    0 simple, 1 ext, 2 COOP (PROOUT), +10 PAW based schemes


 Dipole corrections
   LMONO  =      F    monopole corrections only (constant potential shift)
   LDIPOL =      F    correct potential (dipole corrections)
   IDIPOL =      0    1-x, 2-y, 3-z, 4-all directions 
   EPSILON=  1.0000000 bulk dielectric constant

 Exchange correlation treatment:
   GGA     =    --    GGA type
   LEXCH   =     8    internal setting for exchange type
   VOSKOWN=      0    Vosko Wilk Nusair interpolation
   LHFCALC =     F    Hartree Fock is set to
   LHFONE  =     F    Hartree Fock one center treatment
   AEXX    =    0.0000 exact exchange contribution

 Linear response parameters
   LEPSILON=     F    determine dielectric tensor
   LRPA    =     F    only Hartree local field effects (RPA)
   LNABLA  =     F    use nabla operator in PAW spheres
   LVEL    =     F    velocity operator in full k-point grid
   LINTERFAST=   F  fast interpolation
   KINTER  =     0    interpolate to denser k-point grid
   CSHIFT  =0.1000    complex shift for real part using Kramers Kronig
   OMEGAMAX=  -1.0    maximum frequency
   DEG_THRESHOLD= 0.2000000E-02 threshold for treating states as degnerate
   RTIME   =   -0.100 relaxation time in fs
  (WPLASMAI=    0.000 imaginary part of plasma frequency in eV, 0.658/RTIME)
   DFIELD  = 0.0000000 0.0000000 0.0000000 field for delta impulse in time
 
 Orbital magnetization related:
   ORBITALMAG=     F  switch on orbital magnetization
   LCHIMAG   =     F  perturbation theory with respect to B field
   DQ        =  0.001000  dq finite difference perturbation B field
   LLRAUG    =     F  two centre corrections for induced B field


 ----------------------------------------------------------------------------- 
|                                                                             |
|           W    W    AA    RRRRR   N    N  II  N    N   GGGG   !!!           |
|           W    W   A  A   R    R  NN   N  II  NN   N  G    G  !!!           |
|           W    W  A    A  R    R  N N  N  II  N N  N  G       !!!           |
|           W WW W  AAAAAA  RRRRR   N  N N  II  N  N N  G  GGG   !            |
|           WW  WW  A    A  R   R   N   NN  II  N   NN  G    G                |
|           W    W  A    A  R    R  N    N  II  N    N   GGGG   !!!           |
|                                                                             |
|      One of the lattice vectors is very long (>50 A), but AMIN is rather    |
|      large. This can spoil convergence since charge sloshing might occur    |
|      along the long lattice vector. If problems with convergence are        |
|      observed, try to decrease AMIN to a smaller values (e.g. 0.01).        |
|      Note: this warning only applies if the selfconsistency cycle is used.  |
|                                                                             |
 ----------------------------------------------------------------------------- 



--------------------------------------------------------------------------------------------------------


 conjugate gradient relaxation of ions
   using selective dynamics as specified on POSCAR
 charge density and potential will be updated during run
 non-spin polarized calculation
 RMM-DIIS sequential band-by-band and
  variant of blocked Davidson during initial phase
 perform sub-space diagonalisation
    before iterative eigenvector-optimisation
 modified Broyden-mixing scheme, WC =      100.0
 initial mixing is a Kerker type mixing with AMIX =  0.4000 and BMIX =      1.0000
 Hartree-type preconditioning will be used
 using additional bands          112
 reciprocal scheme for non local part
 use partial core corrections
 calculate Harris-corrections to forces 
   (improved forces if not selfconsistent)
 use gradient corrections 
 use of overlap-Matrix (Vanderbilt PP)
 Methfessel and Paxton  Order N= 1 SIGMA  =   0.20


--------------------------------------------------------------------------------------------------------


  energy-cutoff  :      300.00
  volume of cell :     1898.26
      direct lattice vectors                 reciprocal lattice vectors
     4.192584025  0.000000000  0.000000000     0.238516388  0.137707517  0.000000000
    -2.096292193  3.630884169  0.000000000     0.000000000  0.275415010  0.000000000
     0.000000000  0.000000000124.698310675    -0.000000000 -0.000000000  0.008019355

  length of vectors
     4.192584025  4.192584025124.698310675     0.275415010  0.275415010  0.008019355


 
 k-points in units of 2pi/SCALE and weight: k-point density of [50, 50, 50]/[a, b, c
   0.00000000  0.00000000  0.00000000       0.007
   0.01987637  0.01147563  0.00000000       0.042
   0.03975273  0.02295125  0.00000000       0.042
   0.05962910  0.03442688  0.00000000       0.042
   0.07950546  0.04590251  0.00000000       0.042
   0.09938183  0.05737813  0.00000000       0.042
   0.11925819  0.06885376  0.00000000       0.021
   0.01987637  0.03442688  0.00000000       0.042
   0.03975273  0.04590250  0.00000000       0.083
   0.05962910  0.05737813  0.00000000       0.083
   0.07950546  0.06885376  0.00000000       0.083
   0.09938183  0.08032938  0.00000000       0.083
   0.03975273  0.06885375  0.00000000       0.042
   0.05962910  0.08032938  0.00000000       0.083
   0.07950546  0.09180501  0.00000000       0.083
   0.09938183  0.10328063  0.00000000       0.042
   0.05962910  0.10328063  0.00000000       0.042
   0.07950546  0.11475626  0.00000000       0.083
   0.07950546  0.13770751  0.00000000       0.014
 
 k-points in reciprocal lattice and weights: k-point density of [50, 50, 50]/[a, b, c
   0.00000000  0.00000000  0.00000000       0.007
   0.08333333 -0.00000000  0.00000000       0.042
   0.16666667  0.00000000  0.00000000       0.042
   0.25000000 -0.00000000  0.00000000       0.042
   0.33333333 -0.00000000  0.00000000       0.042
   0.41666667  0.00000000  0.00000000       0.042
   0.50000000 -0.00000000  0.00000000       0.021
   0.08333333  0.08333333  0.00000000       0.042
   0.16666667  0.08333333  0.00000000       0.083
   0.25000000  0.08333333  0.00000000       0.083
   0.33333333  0.08333333  0.00000000       0.083
   0.41666667  0.08333333  0.00000000       0.083
   0.16666667  0.16666667  0.00000000       0.042
   0.25000000  0.16666667  0.00000000       0.083
   0.33333333  0.16666667  0.00000000       0.083
   0.41666667  0.16666667  0.00000000       0.042
   0.25000000  0.25000000  0.00000000       0.042
   0.33333333  0.25000000  0.00000000       0.083
   0.33333333  0.33333333  0.00000000       0.014
 
 position of ions in fractional coordinates (direct lattice) 
   0.33333300  0.66666700  0.22396452
   0.33333300  0.66666700  0.02603573
   0.00000000  0.00000000  0.05729777
   0.00000000  0.00000000  0.10936898
   0.66666700  0.33333300  0.14063102
   0.66666700  0.33333300  0.19270223
   0.33333300  0.66666700  0.47396452
   0.33333300  0.66666700  0.27603573
   0.00000000  0.00000000  0.30729777
   0.00000000  0.00000000  0.35936898
   0.66666700  0.33333300  0.39063102
   0.66666700  0.33333300  0.44270223
   0.00000000  0.00000000  0.20833338
   0.66666700  0.33333300  0.23652503
   0.00000000  0.00000000  0.01347497
   0.66666700  0.33333300  0.04166663
   0.33333300  0.66666700  0.06985853
   0.66666700  0.33333300  0.09680822
   0.33333300  0.66666700  0.12500012
   0.00000000  0.00000000  0.15319178
   0.33333300  0.66666700  0.18014172
   0.00000000  0.00000000  0.45833338
   0.66666700  0.33333300  0.48652503
   0.00000000  0.00000000  0.26347497
   0.66666700  0.33333300  0.29166663
   0.33333300  0.66666700  0.31985853
   0.66666700  0.33333300  0.34680822
   0.33333300  0.66666700  0.37500012
   0.00000000  0.00000000  0.40319178
   0.33333300  0.66666700  0.43014172
 
 position of ions in cartesian coordinates  (Angst):
  -0.00000222  2.42059066 27.92799744
  -0.00000222  2.42059066  3.24661141
   0.00000000  0.00000000  7.14493527
   0.00000000  0.00000000 13.63812691
   2.09629405  1.21029351 17.53645076
   2.09629405  1.21029351 24.02964240
  -0.00000222  2.42059066 59.10257510
  -0.00000222  2.42059066 34.42118908
   0.00000000  0.00000000 38.31951293
   0.00000000  0.00000000 44.81270457
   2.09629405  1.21029351 48.71102843
   2.09629405  1.21029351 55.20422007
   0.00000000  0.00000000 25.97881992
   2.09629405  1.21029351 29.49427196
   0.00000000  0.00000000  1.68030570
   2.09629405  1.21029351  5.19575775
  -0.00000222  2.42059066  8.71124097
   2.09629405  1.21029351 12.07182120
  -0.00000222  2.42059066 15.58730442
   0.00000000  0.00000000 19.10275647
  -0.00000222  2.42059066 22.46336787
   0.00000000  0.00000000 57.15339759
   2.09629405  1.21029351 60.66884963
   0.00000000  0.00000000 32.85488337
   2.09629405  1.21029351 36.37033542
  -0.00000222  2.42059066 39.88581864
   2.09629405  1.21029351 43.24639887
  -0.00000222  2.42059066 46.76188209
   0.00000000  0.00000000 50.27733414
  -0.00000222  2.42059066 53.63794554
 


--------------------------------------------------------------------------------------------------------


 k-point  1 :   0.0000 0.0000 0.0000  plane waves:   22175
 k-point  2 :   0.0833-0.0000 0.0000  plane waves:   22173
 k-point  3 :   0.1667 0.0000 0.0000  plane waves:   22178
 k-point  4 :   0.2500-0.0000 0.0000  plane waves:   22298
 k-point  5 :   0.3333-0.0000 0.0000  plane waves:   22400
 k-point  6 :   0.4167 0.0000 0.0000  plane waves:   22420
 k-point  7 :   0.5000-0.0000 0.0000  plane waves:   22480
 k-point  8 :   0.0833 0.0833 0.0000  plane waves:   22136
 k-point  9 :   0.1667 0.0833 0.0000  plane waves:   22276
 k-point 10 :   0.2500 0.0833 0.0000  plane waves:   22375
 k-point 11 :   0.3333 0.0833 0.0000  plane waves:   22418
 k-point 12 :   0.4167 0.0833 0.0000  plane waves:   22431
 k-point 13 :   0.1667 0.1667 0.0000  plane waves:   22418
 k-point 14 :   0.2500 0.1667 0.0000  plane waves:   22470
 k-point 15 :   0.3333 0.1667 0.0000  plane waves:   22495
 k-point 16 :   0.4167 0.1667 0.0000  plane waves:   22512
 k-point 17 :   0.2500 0.2500 0.0000  plane waves:   22502
 k-point 18 :   0.3333 0.2500 0.0000  plane waves:   22537
 k-point 19 :   0.3333 0.3333 0.0000  plane waves:   22446

 maximum and minimum number of plane-waves per node :      5680     5498

 maximum number of plane-waves:     22537
 maximum index in each direction: 
   IXMAX=    5   IYMAX=    5   IZMAX=  176
   IXMIN=   -6   IYMIN=   -6   IZMIN= -176


 parallel 3D FFT for wavefunctions:
    minimum data exchange during FFTs selected (reduces bandwidth)
 parallel 3D FFT for charge:
    minimum data exchange during FFTs selected (reduces bandwidth)


 total amount of memory used by VASP MPI-rank0    81072. kBytes
=======================================================================

   base      :      30000. kBytes
   nonl-proj :      34283. kBytes
   fftplans  :       5062. kBytes
   grid      :       8024. kBytes
   one-center:        124. kBytes
   wavefun   :       3579. kBytes
 
     INWAV:  cpu time    0.0000: real time    0.0002
 Broyden mixing: mesh for mixing (old mesh)
   NGX = 11   NGY = 11   NGZ =353
  (NGX  = 48   NGY  = 48   NGZ  =***)
  gives a total of  42713 points

 initial charge density was supplied:
 charge density of overlapping atoms calculated
 number of electron     288.0000000 magnetization 
 keeping initial charge density in first step


--------------------------------------------------------------------------------------------------------


 Maximum index for augmentation-charges          489 (set IRDMAX)


--------------------------------------------------------------------------------------------------------


 First call to EWALD:  gamma=   0.143
 Maximum number of real-space cells 8x 8x 1
 Maximum number of reciprocal cells 1x 1x23

    FEWALD:  cpu time    0.0033: real time    0.0033


--------------------------------------- Iteration      1(   1)  ---------------------------------------


    POTLOK:  cpu time    0.1169: real time    0.1594
    SETDIJ:  cpu time    0.0043: real time    0.0044
     EDDAV:  cpu time   40.7976: real time   40.8735
       DOS:  cpu time    0.0071: real time    0.0071
    --------------------------------------------
      LOOP:  cpu time   40.9258: real time   41.0444

 eigenvalue-minimisations  :  9728
 total energy-change (2. order) : 0.1826428E+04  (-0.1046117E+05)
 number of electron     288.0000000 magnetization 
 augmentation part      288.0000000 magnetization 

 Free energy of the ion-electron system (eV)
  ---------------------------------------------------
  alpha Z        PSCENC =       366.02850164
  Ewald energy   TEWEN  =   1276788.50983538
  -Hartree energ DENC   =  -1302724.35753972
  -exchange      EXHF   =         0.00000000
  -V(xc)+E(xc)   XCENC  =       567.11742910
  PAW double counting   =     18994.40067347   -18388.54068378
  entropy T*S    EENTRO =        -0.00520251
  eigenvalues    EBANDS =     -1904.75576033
  atomic energy  EATOM  =     28128.03026041
  Solvation  Ediel_sol  =         0.00000000
  ---------------------------------------------------
  free energy    TOTEN  =      1826.42751365 eV

  energy without entropy =     1826.43271616  energy(sigma->0) =     1826.42924782


--------------------------------------------------------------------------------------------------------




--------------------------------------- Iteration      1(   2)  ---------------------------------------


     EDDAV:  cpu time   19.8850: real time   19.8957
       DOS:  cpu time    0.0022: real time    0.0022
    --------------------------------------------
      LOOP:  cpu time   19.8872: real time   19.8979

 eigenvalue-minimisations  : 12800
 total energy-change (2. order) :-0.1817752E+04  (-0.1778425E+04)
 number of electron     288.0000000 magnetization 
 augmentation part      288.0000000 magnetization 

 Free energy of the ion-electron system (eV)
  ---------------------------------------------------
  alpha Z        PSCENC =       366.02850164
  Ewald energy   TEWEN  =   1276788.50983538
  -Hartree energ DENC   =  -1302724.35753972
  -exchange      EXHF   =         0.00000000
  -V(xc)+E(xc)   XCENC  =       567.11742910
  PAW double counting   =     18994.40067347   -18388.54068378
  entropy T*S    EENTRO =         0.05372580
  eigenvalues    EBANDS =     -3722.56705096
  atomic energy  EATOM  =     28128.03026041
  Solvation  Ediel_sol  =         0.00000000
  ---------------------------------------------------
  free energy    TOTEN  =         8.67515133 eV

  energy without entropy =        8.62142554  energy(sigma->0) =        8.65724273


--------------------------------------------------------------------------------------------------------




--------------------------------------- Iteration      1(   3)  ---------------------------------------


     EDDAV:  cpu time   13.9247: real time   13.9479
       DOS:  cpu time    0.0025: real time    0.0025
    --------------------------------------------
      LOOP:  cpu time   13.9272: real time   13.9504

 eigenvalue-minimisations  : 10496
 total energy-change (2. order) :-0.1338407E+03  (-0.1334125E+03)
 number of electron     288.0000000 magnetization 
 augmentation part      288.0000000 magnetization 

 Free energy of the ion-electron system (eV)
  ---------------------------------------------------
  alpha Z        PSCENC =       366.02850164
  Ewald energy   TEWEN  =   1276788.50983538
  -Hartree energ DENC   =  -1302724.35753972
  -exchange      EXHF   =         0.00000000
  -V(xc)+E(xc)   XCENC  =       567.11742910
  PAW double counting   =     18994.40067347   -18388.54068378
  entropy T*S    EENTRO =         0.06389259
  eigenvalues    EBANDS =     -3856.41793078
  atomic energy  EATOM  =     28128.03026041
  Solvation  Ediel_sol  =         0.00000000
  ---------------------------------------------------
  free energy    TOTEN  =      -125.16556170 eV

  energy without entropy =     -125.22945429  energy(sigma->0) =     -125.18685923


--------------------------------------------------------------------------------------------------------




--------------------------------------- Iteration      1(   4)  ---------------------------------------


     EDDAV:  cpu time   30.6167: real time   30.6606
       DOS:  cpu time    0.0023: real time    0.0023
    --------------------------------------------
      LOOP:  cpu time   30.6190: real time   30.6628

 eigenvalue-minimisations  : 16896
 total energy-change (2. order) :-0.3148960E+01  (-0.3148735E+01)
 number of electron     288.0000000 magnetization 
 augmentation part      288.0000000 magnetization 

 Free energy of the ion-electron system (eV)
  ---------------------------------------------------
  alpha Z        PSCENC =       366.02850164
  Ewald energy   TEWEN  =   1276788.50983538
  -Hartree energ DENC   =  -1302724.35753972
  -exchange      EXHF   =         0.00000000
  -V(xc)+E(xc)   XCENC  =       567.11742910
  PAW double counting   =     18994.40067347   -18388.54068378
  entropy T*S    EENTRO =         0.06364762
  eigenvalues    EBANDS =     -3859.56664584
  atomic energy  EATOM  =     28128.03026041
  Solvation  Ediel_sol  =         0.00000000
  ---------------------------------------------------
  free energy    TOTEN  =      -128.31452173 eV

  energy without entropy =     -128.37816935  energy(sigma->0) =     -128.33573760


--------------------------------------------------------------------------------------------------------




--------------------------------------- Iteration      1(   5)  ---------------------------------------


     EDDAV:  cpu time   15.7909: real time   15.8036
       DOS:  cpu time    0.0024: real time    0.0024
    CHARGE:  cpu time    0.1128: real time    0.1151
    MIXING:  cpu time    0.0203: real time    0.0207
    --------------------------------------------
      LOOP:  cpu time   15.9264: real time   15.9418

 eigenvalue-minimisations  : 11264
 total energy-change (2. order) :-0.1157885E-01  (-0.1157879E-01)
 number of electron     288.0000121 magnetization 
 augmentation part       49.3858184 magnetization 

 Broyden mixing:
  rms(total) = 0.10041E+01    rms(broyden)= 0.10037E+01
  rms(prec ) = 0.10100E+01
  weight for this iteration     100.00

 Free energy of the ion-electron system (eV)
  ---------------------------------------------------
  alpha Z        PSCENC =       366.02850164
  Ewald energy   TEWEN  =   1276788.50983538
  -Hartree energ DENC   =  -1302724.35753972
  -exchange      EXHF   =         0.00000000
  -V(xc)+E(xc)   XCENC  =       567.11742910
  PAW double counting   =     18994.40067347   -18388.54068378
  entropy T*S    EENTRO =         0.06364742
  eigenvalues    EBANDS =     -3859.57822449
  atomic energy  EATOM  =     28128.03026041
  Solvation  Ediel_sol  =         0.00000000
  ---------------------------------------------------
  free energy    TOTEN  =      -128.32610058 eV

  energy without entropy =     -128.38974800  energy(sigma->0) =     -128.34731638


--------------------------------------------------------------------------------------------------------




--------------------------------------- Iteration      1(   6)  ---------------------------------------


    POTLOK:  cpu time    0.0731: real time    0.0811
    SETDIJ:  cpu time    0.0027: real time    0.0027
    EDDIAG:  cpu time    2.0577: real time    2.0597
  RMM-DIIS:  cpu time    1.6972: real time    1.6986
    ORTHCH:  cpu time    0.3365: real time    0.3366
       DOS:  cpu time    0.0013: real time    0.0013
    CHARGE:  cpu time    0.1087: real time    0.1087
    MIXING:  cpu time    0.0021: real time    0.0022
    --------------------------------------------
      LOOP:  cpu time    4.2793: real time    4.2908

 eigenvalue-minimisations  : 10040
 total energy-change (2. order) : 0.5130201E+01  (-0.8408061E+00)
 number of electron     288.0000122 magnetization 
 augmentation part       49.8617665 magnetization 

 Broyden mixing:
  rms(total) = 0.37277E+00    rms(broyden)= 0.37268E+00
  rms(prec ) = 0.37403E+00
  weight for this iteration     100.00

 eigenvalues of (default mixing * dielectric matrix)
  average eigenvalue GAMMA=   1.1865
  1.1865

 Free energy of the ion-electron system (eV)
  ---------------------------------------------------
  alpha Z        PSCENC =       366.02850164
  Ewald energy   TEWEN  =   1276788.50983538
  -Hartree energ DENC   =  -1302591.45083151
  -exchange      EXHF   =         0.00000000
  -V(xc)+E(xc)   XCENC  =       569.16422987
  PAW double counting   =     18926.09107387   -18298.32101594
  entropy T*S    EENTRO =         0.03457304
  eigenvalues    EBANDS =     -4011.28252607
  atomic energy  EATOM  =     28128.03026041
  Solvation  Ediel_sol  =         0.00000000
  ---------------------------------------------------
  free energy    TOTEN  =      -123.19589932 eV

  energy without entropy =     -123.23047236  energy(sigma->0) =     -123.20742367


--------------------------------------------------------------------------------------------------------




--------------------------------------- Iteration      1(   7)  ---------------------------------------


    POTLOK:  cpu time    0.0779: real time    0.0833
    SETDIJ:  cpu time    0.0026: real time    0.0026
    EDDIAG:  cpu time    2.0530: real time    2.0536
  RMM-DIIS:  cpu time    1.7377: real time    1.7388
    ORTHCH:  cpu time    0.3310: real time    0.3310
       DOS:  cpu time    0.0015: real time    0.0015
    CHARGE:  cpu time    0.1088: real time    0.1089
    MIXING:  cpu time    0.0014: real time    0.0014
    --------------------------------------------
      LOOP:  cpu time    4.3140: real time    4.3212

 eigenvalue-minimisations  : 10648
 total energy-change (2. order) : 0.1977044E+00  (-0.6101678E-01)
 number of electron     288.0000122 magnetization 
 augmentation part       49.8676294 magnetization 

 Broyden mixing:
  rms(total) = 0.20301E+00    rms(broyden)= 0.20300E+00
  rms(prec ) = 0.20452E+00
  weight for this iteration     100.00

 eigenvalues of (default mixing * dielectric matrix)
  average eigenvalue GAMMA=   1.3584
  1.0225  1.6943

 Free energy of the ion-electron system (eV)
  ---------------------------------------------------
  alpha Z        PSCENC =       366.02850164
  Ewald energy   TEWEN  =   1276788.50983538
  -Hartree energ DENC   =  -1302699.45839271
  -exchange      EXHF   =         0.00000000
  -V(xc)+E(xc)   XCENC  =       570.08802783
  PAW double counting   =     19002.70797194   -18372.89364148
  entropy T*S    EENTRO =         0.02532825
  eigenvalues    EBANDS =     -3906.03608618
  atomic energy  EATOM  =     28128.03026041
  Solvation  Ediel_sol  =         0.00000000
  ---------------------------------------------------
  free energy    TOTEN  =      -122.99819492 eV

  energy without entropy =     -123.02352317  energy(sigma->0) =     -123.00663767


--------------------------------------------------------------------------------------------------------




--------------------------------------- Iteration      1(   8)  ---------------------------------------


    POTLOK:  cpu time    0.0771: real time    0.0834
    SETDIJ:  cpu time    0.0027: real time    0.0027
    EDDIAG:  cpu time    2.0515: real time    2.0523
  RMM-DIIS:  cpu time    1.6566: real time    1.6575
    ORTHCH:  cpu time    0.3883: real time    0.3884
       DOS:  cpu time    0.0015: real time    0.0015
    CHARGE:  cpu time    0.1076: real time    0.1076
    MIXING:  cpu time    0.0015: real time    0.0015
    --------------------------------------------
      LOOP:  cpu time    4.2869: real time    4.2950

 eigenvalue-minimisations  : 10027
 total energy-change (2. order) :-0.1308142E+00  (-0.1452079E-01)
 number of electron     288.0000122 magnetization 
 augmentation part       49.8124279 magnetization 

 Broyden mixing:
  rms(total) = 0.14374E+00    rms(broyden)= 0.14372E+00
  rms(prec ) = 0.15028E+00
  weight for this iteration     100.00

 eigenvalues of (default mixing * dielectric matrix)
  average eigenvalue GAMMA=   1.2637
  2.1535  1.1120  0.5254

 Free energy of the ion-electron system (eV)
  ---------------------------------------------------
  alpha Z        PSCENC =       366.02850164
  Ewald energy   TEWEN  =   1276788.50983538
  -Hartree energ DENC   =  -1302535.29004943
  -exchange      EXHF   =         0.00000000
  -V(xc)+E(xc)   XCENC  =       570.69014367
  PAW double counting   =     19065.02289150   -18435.51350343
  entropy T*S    EENTRO =         0.01938300
  eigenvalues    EBANDS =     -4070.62647181
  atomic energy  EATOM  =     28128.03026041
  Solvation  Ediel_sol  =         0.00000000
  ---------------------------------------------------
  free energy    TOTEN  =      -123.12900909 eV

  energy without entropy =     -123.14839209  energy(sigma->0) =     -123.13547009


--------------------------------------------------------------------------------------------------------




--------------------------------------- Iteration      1(   9)  ---------------------------------------


    POTLOK:  cpu time    0.0761: real time    0.0822
    SETDIJ:  cpu time    0.0029: real time    0.0029
    EDDIAG:  cpu time    2.0555: real time    2.0559
  RMM-DIIS:  cpu time    1.7111: real time    1.7122
    ORTHCH:  cpu time    0.3371: real time    0.3373
       DOS:  cpu time    0.0017: real time    0.0017
    CHARGE:  cpu time    0.1087: real time    0.1087
    MIXING:  cpu time    0.0015: real time    0.0015
    --------------------------------------------
      LOOP:  cpu time    4.2946: real time    4.3024

 eigenvalue-minimisations  : 10526
 total energy-change (2. order) : 0.1399614E+00  (-0.6026256E-02)
 number of electron     288.0000122 magnetization 
 augmentation part       49.7893197 magnetization 

 Broyden mixing:
  rms(total) = 0.51164E-01    rms(broyden)= 0.51136E-01
  rms(prec ) = 0.53246E-01
  weight for this iteration     100.00

 eigenvalues of (default mixing * dielectric matrix)
  average eigenvalue GAMMA=   1.2551
  2.5324  1.1745  0.8656  0.4478

 Free energy of the ion-electron system (eV)
  ---------------------------------------------------
  alpha Z        PSCENC =       366.02850164
  Ewald energy   TEWEN  =   1276788.50983538
  -Hartree energ DENC   =  -1302678.02581134
  -exchange      EXHF   =         0.00000000
  -V(xc)+E(xc)   XCENC  =       570.92109925
  PAW double counting   =     19096.47376595   -18467.63475235
  entropy T*S    EENTRO =         0.02932359
  eigenvalues    EBANDS =     -3927.32127018
  atomic energy  EATOM  =     28128.03026041
  Solvation  Ediel_sol  =         0.00000000
  ---------------------------------------------------
  free energy    TOTEN  =      -122.98904766 eV

  energy without entropy =     -123.01837125  energy(sigma->0) =     -122.99882219


--------------------------------------------------------------------------------------------------------




--------------------------------------- Iteration      1(  10)  ---------------------------------------


    POTLOK:  cpu time    0.0758: real time    0.0827
    SETDIJ:  cpu time    0.0027: real time    0.0027
    EDDIAG:  cpu time    2.0258: real time    2.0263
  RMM-DIIS:  cpu time    1.6804: real time    1.6817
    ORTHCH:  cpu time    0.3346: real time    0.3347
       DOS:  cpu time    0.0014: real time    0.0014
    CHARGE:  cpu time    0.1074: real time    0.1074
    MIXING:  cpu time    0.0015: real time    0.0015
    --------------------------------------------
      LOOP:  cpu time    4.2297: real time    4.2385

 eigenvalue-minimisations  : 10392
 total energy-change (2. order) : 0.1694767E-01  (-0.8691466E-03)
 number of electron     288.0000122 magnetization 
 augmentation part       49.7803628 magnetization 

 Broyden mixing:
  rms(total) = 0.22961E-01    rms(broyden)= 0.22957E-01
  rms(prec ) = 0.24484E-01
  weight for this iteration     100.00

 eigenvalues of (default mixing * dielectric matrix)
  average eigenvalue GAMMA=   1.1617
  2.5740  1.1736  0.9001  0.7341  0.4268

 Free energy of the ion-electron system (eV)
  ---------------------------------------------------
  alpha Z        PSCENC =       366.02850164
  Ewald energy   TEWEN  =   1276788.50983538
  -Hartree energ DENC   =  -1302639.56803976
  -exchange      EXHF   =         0.00000000
  -V(xc)+E(xc)   XCENC  =       571.02730881
  PAW double counting   =     19113.41915858   -18485.07460006
  entropy T*S    EENTRO =         0.04868633
  eigenvalues    EBANDS =     -3965.39321132
  atomic energy  EATOM  =     28128.03026041
  Solvation  Ediel_sol  =         0.00000000
  ---------------------------------------------------
  free energy    TOTEN  =      -122.97210000 eV

  energy without entropy =     -123.02078632  energy(sigma->0) =     -122.98832877


--------------------------------------------------------------------------------------------------------




--------------------------------------- Iteration      1(  11)  ---------------------------------------


    POTLOK:  cpu time    0.0795: real time    0.0864
    SETDIJ:  cpu time    0.0028: real time    0.0028
    EDDIAG:  cpu time    2.0277: real time    2.0282
  RMM-DIIS:  cpu time    1.7120: real time    1.7132
    ORTHCH:  cpu time    0.3316: real time    0.3317
       DOS:  cpu time    0.0015: real time    0.0015
    CHARGE:  cpu time    0.1087: real time    0.1088
    MIXING:  cpu time    0.0016: real time    0.0016
    --------------------------------------------
      LOOP:  cpu time    4.2654: real time    4.2742

 eigenvalue-minimisations  : 10535
 total energy-change (2. order) : 0.3846960E-02  (-0.2031040E-03)
 number of electron     288.0000122 magnetization 
 augmentation part       49.7812517 magnetization 

 Broyden mixing:
  rms(total) = 0.17438E-01    rms(broyden)= 0.17435E-01
  rms(prec ) = 0.19008E-01
  weight for this iteration     100.00

 eigenvalues of (default mixing * dielectric matrix)
  average eigenvalue GAMMA=   1.2203
  2.6780  1.8313  1.1526  0.8804  0.4481  0.3312

 Free energy of the ion-electron system (eV)
  ---------------------------------------------------
  alpha Z        PSCENC =       366.02850164
  Ewald energy   TEWEN  =   1276788.50983538
  -Hartree energ DENC   =  -1302636.09635409
  -exchange      EXHF   =         0.00000000
  -V(xc)+E(xc)   XCENC  =       571.02680856
  PAW double counting   =     19114.37778844   -18486.12059405
  entropy T*S    EENTRO =         0.05257641
  eigenvalues    EBANDS =     -3968.77707572
  atomic energy  EATOM  =     28128.03026041
  Solvation  Ediel_sol  =         0.00000000
  ---------------------------------------------------
  free energy    TOTEN  =      -122.96825304 eV

  energy without entropy =     -123.02082944  energy(sigma->0) =     -122.98577851


--------------------------------------------------------------------------------------------------------




--------------------------------------- Iteration      1(  12)  ---------------------------------------


    POTLOK:  cpu time    0.0760: real time    0.0824
    SETDIJ:  cpu time    0.0027: real time    0.0027
    EDDIAG:  cpu time    2.1418: real time    2.1422
  RMM-DIIS:  cpu time    1.6750: real time    1.6760
    ORTHCH:  cpu time    0.3398: real time    0.3399
       DOS:  cpu time    0.0015: real time    0.0015
    CHARGE:  cpu time    0.1079: real time    0.1079
    MIXING:  cpu time    0.0016: real time    0.0016
    --------------------------------------------
      LOOP:  cpu time    4.3462: real time    4.3542

 eigenvalue-minimisations  : 10099
 total energy-change (2. order) :-0.1439868E-01  (-0.2393759E-03)
 number of electron     288.0000122 magnetization 
 augmentation part       49.7863918 magnetization 

 Broyden mixing:
  rms(total) = 0.20807E-01    rms(broyden)= 0.20804E-01
  rms(prec ) = 0.27445E-01
  weight for this iteration     100.00

 eigenvalues of (default mixing * dielectric matrix)
  average eigenvalue GAMMA=   1.1107
  2.7131  1.9505  1.1428  0.8779  0.3725  0.3592  0.3592

 Free energy of the ion-electron system (eV)
  ---------------------------------------------------
  alpha Z        PSCENC =       366.02850164
  Ewald energy   TEWEN  =   1276788.50983538
  -Hartree energ DENC   =  -1302612.99624392
  -exchange      EXHF   =         0.00000000
  -V(xc)+E(xc)   XCENC  =       571.01453869
  PAW double counting   =     19115.64983134   -18487.59899547
  entropy T*S    EENTRO =         0.03568152
  eigenvalues    EBANDS =     -3991.65606129
  atomic energy  EATOM  =     28128.03026041
  Solvation  Ediel_sol  =         0.00000000
  ---------------------------------------------------
  free energy    TOTEN  =      -122.98265172 eV

  energy without entropy =     -123.01833323  energy(sigma->0) =     -122.99454555


--------------------------------------------------------------------------------------------------------




--------------------------------------- Iteration      1(  13)  ---------------------------------------


    POTLOK:  cpu time    0.0748: real time    0.0821
    SETDIJ:  cpu time    0.0027: real time    0.0027
    EDDIAG:  cpu time    2.0285: real time    2.0296
  RMM-DIIS:  cpu time    1.7229: real time    1.7239
    ORTHCH:  cpu time    0.3330: real time    0.3331
       DOS:  cpu time    0.0015: real time    0.0015
    CHARGE:  cpu time    0.1083: real time    0.1083
    MIXING:  cpu time    0.0016: real time    0.0016
    --------------------------------------------
      LOOP:  cpu time    4.2733: real time    4.2828

 eigenvalue-minimisations  : 10608
 total energy-change (2. order) : 0.9338705E-03  (-0.8429993E-04)
 number of electron     288.0000122 magnetization 
 augmentation part       49.7862566 magnetization 

 Broyden mixing:
  rms(total) = 0.15004E-01    rms(broyden)= 0.15001E-01
  rms(prec ) = 0.19385E-01
  weight for this iteration     100.00

 eigenvalues of (default mixing * dielectric matrix)
  average eigenvalue GAMMA=   1.0123
  2.7285  2.0052  1.1310  0.8776  0.4171  0.4171  0.3585  0.1632

 Free energy of the ion-electron system (eV)
  ---------------------------------------------------
  alpha Z        PSCENC =       366.02850164
  Ewald energy   TEWEN  =   1276788.50983538
  -Hartree energ DENC   =  -1302623.85538478
  -exchange      EXHF   =         0.00000000
  -V(xc)+E(xc)   XCENC  =       571.01359003
  PAW double counting   =     19116.02715775   -18488.02699721
  entropy T*S    EENTRO =         0.02927432
  eigenvalues    EBANDS =     -3980.73795538
  atomic energy  EATOM  =     28128.03026041
  Solvation  Ediel_sol  =         0.00000000
  ---------------------------------------------------
  free energy    TOTEN  =      -122.98171784 eV

  energy without entropy =     -123.01099216  energy(sigma->0) =     -122.99147595


--------------------------------------------------------------------------------------------------------




--------------------------------------- Iteration      1(  14)  ---------------------------------------


    POTLOK:  cpu time    0.0741: real time    0.0817
    SETDIJ:  cpu time    0.0026: real time    0.0027
    EDDIAG:  cpu time    2.0466: real time    2.0471
  RMM-DIIS:  cpu time    1.7932: real time    1.7946
    ORTHCH:  cpu time    0.3386: real time    0.3386
       DOS:  cpu time    0.0018: real time    0.0018
    CHARGE:  cpu time    0.1076: real time    0.1076
    MIXING:  cpu time    0.0017: real time    0.0017
    --------------------------------------------
      LOOP:  cpu time    4.3662: real time    4.3759

 eigenvalue-minimisations  : 10447
 total energy-change (2. order) : 0.1443897E-01  (-0.5203178E-04)
 number of electron     288.0000122 magnetization 
 augmentation part       49.7862515 magnetization 

 Broyden mixing:
  rms(total) = 0.67886E-02    rms(broyden)= 0.67857E-02
  rms(prec ) = 0.10108E-01
  weight for this iteration     100.00

 eigenvalues of (default mixing * dielectric matrix)
  average eigenvalue GAMMA=   0.9954
  2.7293  2.1303  1.0126  1.0126  0.7824  0.4086  0.4086  0.2371  0.2371

 Free energy of the ion-electron system (eV)
  ---------------------------------------------------
  alpha Z        PSCENC =       366.02850164
  Ewald energy   TEWEN  =   1276788.50983538
  -Hartree energ DENC   =  -1302635.77952555
  -exchange      EXHF   =         0.00000000
  -V(xc)+E(xc)   XCENC  =       571.01329217
  PAW double counting   =     19116.31315214   -18488.35223801
  entropy T*S    EENTRO =         0.05191988
  eigenvalues    EBANDS =     -3968.78247693
  atomic energy  EATOM  =     28128.03026041
  Solvation  Ediel_sol  =         0.00000000
  ---------------------------------------------------
  free energy    TOTEN  =      -122.96727888 eV

  energy without entropy =     -123.01919875  energy(sigma->0) =     -122.98458550


--------------------------------------------------------------------------------------------------------




--------------------------------------- Iteration      1(  15)  ---------------------------------------


    POTLOK:  cpu time    0.0782: real time    0.0818
    SETDIJ:  cpu time    0.0027: real time    0.0027
    EDDIAG:  cpu time    2.0404: real time    2.0410
  RMM-DIIS:  cpu time    1.8632: real time    1.8660
    ORTHCH:  cpu time    0.3425: real time    0.3430
       DOS:  cpu time    0.0015: real time    0.0015
    CHARGE:  cpu time    0.1083: real time    0.1084
    MIXING:  cpu time    0.0018: real time    0.0018
    --------------------------------------------
      LOOP:  cpu time    4.4384: real time    4.4461

 eigenvalue-minimisations  : 10685
 total energy-change (2. order) :-0.3180217E-02  (-0.2224524E-04)
 number of electron     288.0000122 magnetization 
 augmentation part       49.7857701 magnetization 

 Broyden mixing:
  rms(total) = 0.11009E-01    rms(broyden)= 0.11008E-01
  rms(prec ) = 0.17843E-01
  weight for this iteration     100.00

 eigenvalues of (default mixing * dielectric matrix)
  average eigenvalue GAMMA=   0.9291
  2.7288  2.1709  1.0586  1.0586  0.8238  0.4167  0.4167  0.2813  0.1678  0.1678

 Free energy of the ion-electron system (eV)
  ---------------------------------------------------
  alpha Z        PSCENC =       366.02850164
  Ewald energy   TEWEN  =   1276788.50983538
  -Hartree energ DENC   =  -1302636.16656290
  -exchange      EXHF   =         0.00000000
  -V(xc)+E(xc)   XCENC  =       571.01216289
  PAW double counting   =     19116.65027252   -18488.74724338
  entropy T*S    EENTRO =         0.05003720
  eigenvalues    EBANDS =     -3968.33772284
  atomic energy  EATOM  =     28128.03026041
  Solvation  Ediel_sol  =         0.00000000
  ---------------------------------------------------
  free energy    TOTEN  =      -122.97045909 eV

  energy without entropy =     -123.02049629  energy(sigma->0) =     -122.98713816


--------------------------------------------------------------------------------------------------------




--------------------------------------- Iteration      1(  16)  ---------------------------------------


    POTLOK:  cpu time    0.0803: real time    0.0821
    SETDIJ:  cpu time    0.0026: real time    0.0028
    EDDIAG:  cpu time    2.0629: real time    2.0657
  RMM-DIIS:  cpu time    1.7007: real time    1.7040
    ORTHCH:  cpu time    0.3314: real time    0.3319
       DOS:  cpu time    0.0015: real time    0.0015
    CHARGE:  cpu time    0.1077: real time    0.1080
    MIXING:  cpu time    0.0017: real time    0.0017
    --------------------------------------------
      LOOP:  cpu time    4.2888: real time    4.2977

 eigenvalue-minimisations  : 10433
 total energy-change (2. order) : 0.3554407E-02  (-0.1379120E-04)
 number of electron     288.0000122 magnetization 
 augmentation part       49.7855205 magnetization 

 Broyden mixing:
  rms(total) = 0.52125E-02    rms(broyden)= 0.52119E-02
  rms(prec ) = 0.86905E-02
  weight for this iteration     100.00

 eigenvalues of (default mixing * dielectric matrix)
  average eigenvalue GAMMA=   0.8969
  2.7429  2.2144  1.0984  1.0984  0.8338  0.4513  0.4513  0.2963  0.2963  0.1911
  0.1911

 Free energy of the ion-electron system (eV)
  ---------------------------------------------------
  alpha Z        PSCENC =       366.02850164
  Ewald energy   TEWEN  =   1276788.50983538
  -Hartree energ DENC   =  -1302635.44387076
  -exchange      EXHF   =         0.00000000
  -V(xc)+E(xc)   XCENC  =       571.01196854
  PAW double counting   =     19116.77778854   -18488.89899513
  entropy T*S    EENTRO =         0.05232926
  eigenvalues    EBANDS =     -3969.03472255
  atomic energy  EATOM  =     28128.03026041
  Solvation  Ediel_sol  =         0.00000000
  ---------------------------------------------------
  free energy    TOTEN  =      -122.96690469 eV

  energy without entropy =     -123.01923394  energy(sigma->0) =     -122.98434777


--------------------------------------------------------------------------------------------------------




--------------------------------------- Iteration      1(  17)  ---------------------------------------


    POTLOK:  cpu time    0.0771: real time    0.0828
    SETDIJ:  cpu time    0.0027: real time    0.0027
    EDDIAG:  cpu time    2.0109: real time    2.0133
  RMM-DIIS:  cpu time    1.6532: real time    1.6593
    ORTHCH:  cpu time    0.3438: real time    0.3440
       DOS:  cpu time    0.0016: real time    0.0016
    CHARGE:  cpu time    0.1103: real time    0.1104
    MIXING:  cpu time    0.0018: real time    0.0018
    --------------------------------------------
      LOOP:  cpu time    4.2014: real time    4.2159

 eigenvalue-minimisations  :  9849
 total energy-change (2. order) : 0.6461082E-03  (-0.4064086E-05)
 number of electron     288.0000122 magnetization 
 augmentation part       49.7853277 magnetization 

 Broyden mixing:
  rms(total) = 0.16979E-02    rms(broyden)= 0.16962E-02
  rms(prec ) = 0.19309E-02
  weight for this iteration     100.00

 eigenvalues of (default mixing * dielectric matrix)
  average eigenvalue GAMMA=   0.9401
  2.7952  2.2855  1.4743  1.0316  1.0316  0.6814  0.4970  0.4970  0.3028  0.3028
  0.1911  0.1911

 Free energy of the ion-electron system (eV)
  ---------------------------------------------------
  alpha Z        PSCENC =       366.02850164
  Ewald energy   TEWEN  =   1276788.50983538
  -Hartree energ DENC   =  -1302635.06156940
  -exchange      EXHF   =         0.00000000
  -V(xc)+E(xc)   XCENC  =       571.01271003
  PAW double counting   =     19116.83033016   -18488.96460957
  entropy T*S    EENTRO =         0.05266265
  eigenvalues    EBANDS =     -3969.40437987
  atomic energy  EATOM  =     28128.03026041
  Solvation  Ediel_sol  =         0.00000000
  ---------------------------------------------------
  free energy    TOTEN  =      -122.96625858 eV

  energy without entropy =     -123.01892123  energy(sigma->0) =     -122.98381280


--------------------------------------------------------------------------------------------------------




--------------------------------------- Iteration      1(  18)  ---------------------------------------


    POTLOK:  cpu time    0.0753: real time    0.0819
    SETDIJ:  cpu time    0.0027: real time    0.0027
    EDDIAG:  cpu time    2.0126: real time    2.0153
  RMM-DIIS:  cpu time    1.6218: real time    1.6246
    ORTHCH:  cpu time    0.3322: real time    0.3322
       DOS:  cpu time    0.0015: real time    0.0015
    CHARGE:  cpu time    0.1085: real time    0.1086
    MIXING:  cpu time    0.0018: real time    0.0018
    --------------------------------------------
      LOOP:  cpu time    4.1564: real time    4.1685

 eigenvalue-minimisations  :  9773
 total energy-change (2. order) :-0.6080941E-04  (-0.2285882E-05)
 number of electron     288.0000122 magnetization 
 augmentation part       49.7853672 magnetization 

 Broyden mixing:
  rms(total) = 0.14608E-02    rms(broyden)= 0.14606E-02
  rms(prec ) = 0.23340E-02
  weight for this iteration     100.00

 eigenvalues of (default mixing * dielectric matrix)
  average eigenvalue GAMMA=   0.9476
  2.8468  2.3757  1.7726  1.0157  1.0157  0.7532  0.6055  0.4783  0.4783  0.2976
  0.2976  0.1905  0.1905

 Free energy of the ion-electron system (eV)
  ---------------------------------------------------
  alpha Z        PSCENC =       366.02850164
  Ewald energy   TEWEN  =   1276788.50983538
  -Hartree energ DENC   =  -1302634.19864411
  -exchange      EXHF   =         0.00000000
  -V(xc)+E(xc)   XCENC  =       571.01545242
  PAW double counting   =     19116.76571053   -18488.90111725
  entropy T*S    EENTRO =         0.05268512
  eigenvalues    EBANDS =     -3970.26900351
  atomic energy  EATOM  =     28128.03026041
  Solvation  Ediel_sol  =         0.00000000
  ---------------------------------------------------
  free energy    TOTEN  =      -122.96631939 eV

  energy without entropy =     -123.01900450  energy(sigma->0) =     -122.98388109


--------------------------------------------------------------------------------------------------------




--------------------------------------- Iteration      1(  19)  ---------------------------------------


    POTLOK:  cpu time    0.0765: real time    0.0824
    SETDIJ:  cpu time    0.0027: real time    0.0027
    EDDIAG:  cpu time    2.1412: real time    2.1440
  RMM-DIIS:  cpu time    1.6423: real time    1.6477
    ORTHCH:  cpu time    0.3334: real time    0.3342
       DOS:  cpu time    0.0015: real time    0.0015
    CHARGE:  cpu time    0.1215: real time    0.1217
    MIXING:  cpu time    0.0019: real time    0.0019
    --------------------------------------------
      LOOP:  cpu time    4.3209: real time    4.3360

 eigenvalue-minimisations  :  9028
 total energy-change (2. order) : 0.1253768E-04  (-0.8267544E-06)
 number of electron     288.0000122 magnetization 
 augmentation part       49.7854062 magnetization 

 Broyden mixing:
  rms(total) = 0.71444E-03    rms(broyden)= 0.71432E-03
  rms(prec ) = 0.10336E-02
  weight for this iteration     100.00

 eigenvalues of (default mixing * dielectric matrix)
  average eigenvalue GAMMA=   0.9532
  2.8392  2.3064  1.5664  1.3403  1.0295  1.0295  0.8102  0.5071  0.4672  0.4672
  0.3005  0.3005  0.1906  0.1906

 Free energy of the ion-electron system (eV)
  ---------------------------------------------------
  alpha Z        PSCENC =       366.02850164
  Ewald energy   TEWEN  =   1276788.50983538
  -Hartree energ DENC   =  -1302634.88632130
  -exchange      EXHF   =         0.00000000
  -V(xc)+E(xc)   XCENC  =       571.01658976
  PAW double counting   =     19116.68067955   -18488.81263115
  entropy T*S    EENTRO =         0.05271511
  eigenvalues    EBANDS =     -3969.58593624
  atomic energy  EATOM  =     28128.03026041
  Solvation  Ediel_sol  =         0.00000000
  ---------------------------------------------------
  free energy    TOTEN  =      -122.96630685 eV

  energy without entropy =     -123.01902196  energy(sigma->0) =     -122.98387855


--------------------------------------------------------------------------------------------------------




--------------------------------------- Iteration      1(  20)  ---------------------------------------


    POTLOK:  cpu time    0.0757: real time    0.0827
    SETDIJ:  cpu time    0.0027: real time    0.0027
    EDDIAG:  cpu time    2.0130: real time    2.0163
  RMM-DIIS:  cpu time    1.6867: real time    1.6912
    ORTHCH:  cpu time    0.3293: real time    0.3297
       DOS:  cpu time    0.0015: real time    0.0015
    CHARGE:  cpu time    0.1083: real time    0.1085
    MIXING:  cpu time    0.0018: real time    0.0018
    --------------------------------------------
      LOOP:  cpu time    4.2191: real time    4.2345

 eigenvalue-minimisations  :  8595
 total energy-change (2. order) :-0.2394168E-05  ( 0.1491131E-05)
 number of electron     288.0000122 magnetization 
 augmentation part       49.7855120 magnetization 

 Broyden mixing:
  rms(total) = 0.63162E-03    rms(broyden)= 0.63141E-03
  rms(prec ) = 0.10097E-02
  weight for this iteration     100.00

 eigenvalues of (default mixing * dielectric matrix)
  average eigenvalue GAMMA=   0.9778
  2.9501  2.3963  2.0601  1.4099  1.0631  0.9899  0.7392  0.7392  0.4544  0.4384
  0.4384  0.3037  0.3037  0.1906  0.1906

 Free energy of the ion-electron system (eV)
  ---------------------------------------------------
  alpha Z        PSCENC =       366.02850164
  Ewald energy   TEWEN  =   1276788.50983538
  -Hartree energ DENC   =  -1302634.47481243
  -exchange      EXHF   =         0.00000000
  -V(xc)+E(xc)   XCENC  =       571.01681065
  PAW double counting   =     19116.61682469   -18488.74455058
  entropy T*S    EENTRO =         0.05288879
  eigenvalues    EBANDS =     -3970.00206779
  atomic energy  EATOM  =     28128.03026041
  Solvation  Ediel_sol  =         0.00000000
  ---------------------------------------------------
  free energy    TOTEN  =      -122.96630924 eV

  energy without entropy =     -123.01919804  energy(sigma->0) =     -122.98393884


--------------------------------------------------------------------------------------------------------




--------------------------------------- Iteration      1(  21)  ---------------------------------------


    POTLOK:  cpu time    0.0775: real time    0.0839
    SETDIJ:  cpu time    0.0026: real time    0.0026
    EDDIAG:  cpu time    2.0527: real time    2.0550
  RMM-DIIS:  cpu time    1.6092: real time    1.6140
    ORTHCH:  cpu time    0.3283: real time    0.3285
       DOS:  cpu time    0.0016: real time    0.0016
    CHARGE:  cpu time    0.1088: real time    0.1089
    MIXING:  cpu time    0.0020: real time    0.0020
    --------------------------------------------
      LOOP:  cpu time    4.1827: real time    4.1966

 eigenvalue-minimisations  :  7908
 total energy-change (2. order) : 0.6144293E-02  ( 0.1787891E-03)
 number of electron     288.0000122 magnetization 
 augmentation part       49.7830066 magnetization 

 Broyden mixing:
  rms(total) = 0.39971E-02    rms(broyden)= 0.39964E-02
  rms(prec ) = 0.41446E-02
  weight for this iteration     100.00

 eigenvalues of (default mixing * dielectric matrix)
  average eigenvalue GAMMA=   0.9164
  2.9705  2.2228  2.2228  1.3274  1.1464  0.9392  0.7490  0.7490  0.4578  0.4390
  0.4390  0.3035  0.3035  0.1906  0.1906  0.0111

 Free energy of the ion-electron system (eV)
  ---------------------------------------------------
  alpha Z        PSCENC =       366.02850164
  Ewald energy   TEWEN  =   1276788.50983538
  -Hartree energ DENC   =  -1302634.83646850
  -exchange      EXHF   =         0.00000000
  -V(xc)+E(xc)   XCENC  =       571.01741092
  PAW double counting   =     19116.55477667   -18488.67937809
  entropy T*S    EENTRO =         0.08317909
  eigenvalues    EBANDS =     -3969.66828244
  atomic energy  EATOM  =     28128.03026041
  Solvation  Ediel_sol  =         0.00000000
  ---------------------------------------------------
  free energy    TOTEN  =      -122.96016495 eV

  energy without entropy =     -123.04334404  energy(sigma->0) =     -122.98789131


--------------------------------------------------------------------------------------------------------




--------------------------------------- Iteration      1(  22)  ---------------------------------------


    POTLOK:  cpu time    0.0763: real time    0.0831
    SETDIJ:  cpu time    0.0026: real time    0.0026
    EDDIAG:  cpu time    2.0478: real time    2.0502
  RMM-DIIS:  cpu time    1.1310: real time    1.1327
    ORTHCH:  cpu time    0.3496: real time    0.3502
       DOS:  cpu time    0.0015: real time    0.0015
    CHARGE:  cpu time    0.1076: real time    0.1078
    MIXING:  cpu time    0.0019: real time    0.0019
    --------------------------------------------
      LOOP:  cpu time    3.7183: real time    3.7301

 eigenvalue-minimisations  :  6947
 total energy-change (2. order) :-0.5525017E-02  ( 0.3689939E-01)
 number of electron     288.0000122 magnetization 
 augmentation part       49.7893269 magnetization 

 Broyden mixing:
  rms(total) = 0.39957E-02    rms(broyden)= 0.39884E-02
  rms(prec ) = 0.40894E-02
  weight for this iteration     100.00

 eigenvalues of (default mixing * dielectric matrix)
  average eigenvalue GAMMA=   0.8630
  2.9706  2.2632  2.1852  1.3320  1.1418  0.9407  0.7491  0.7491  0.4578  0.4391
  0.4391  0.3035  0.3035  0.1906  0.1906  0.0027  0.0125

 Free energy of the ion-electron system (eV)
  ---------------------------------------------------
  alpha Z        PSCENC =       366.02850164
  Ewald energy   TEWEN  =   1276788.50983538
  -Hartree energ DENC   =  -1302634.81356281
  -exchange      EXHF   =         0.00000000
  -V(xc)+E(xc)   XCENC  =       571.01761884
  PAW double counting   =     19116.55742322   -18488.68127708
  entropy T*S    EENTRO =         0.05804454
  eigenvalues    EBANDS =     -3969.67253411
  atomic energy  EATOM  =     28128.03026041
  Solvation  Ediel_sol  =         0.00000000
  ---------------------------------------------------
  free energy    TOTEN  =      -122.96568997 eV

  energy without entropy =     -123.02373451  energy(sigma->0) =     -122.98503815


--------------------------------------------------------------------------------------------------------




--------------------------------------- Iteration      1(  23)  ---------------------------------------


    POTLOK:  cpu time    0.0754: real time    0.0814
    SETDIJ:  cpu time    0.0047: real time    0.0047
    EDDIAG:  cpu time    2.0925: real time    2.0939
  RMM-DIIS:  cpu time    1.1293: real time    1.1315
    ORTHCH:  cpu time    0.3311: real time    0.3318
       DOS:  cpu time    0.0017: real time    0.0017
    CHARGE:  cpu time    0.1076: real time    0.1078
    MIXING:  cpu time    0.0020: real time    0.0020
    --------------------------------------------
      LOOP:  cpu time    3.7443: real time    3.7548

 eigenvalue-minimisations  :  7046
 total energy-change (2. order) :-0.1436447E+00  (-0.2647357E-01)
 number of electron     288.0000122 magnetization 
 augmentation part       49.8090309 magnetization 

 Broyden mixing:
  rms(total) = 0.31604E-01    rms(broyden)= 0.31582E-01
  rms(prec ) = 0.33317E-01
  weight for this iteration     100.00

 eigenvalues of (default mixing * dielectric matrix)
  average eigenvalue GAMMA=   0.8153
  2.9690  2.2857  2.1540  1.3473  1.1373  0.9383  0.7494  0.7494  0.4574  0.4390
  0.4390  0.3035  0.3035  0.1906  0.1906  0.0166  0.0021  0.0021

 Free energy of the ion-electron system (eV)
  ---------------------------------------------------
  alpha Z        PSCENC =       366.02850164
  Ewald energy   TEWEN  =   1276788.50983538
  -Hartree energ DENC   =  -1302634.81542505
  -exchange      EXHF   =         0.00000000
  -V(xc)+E(xc)   XCENC  =       571.01759376
  PAW double counting   =     19116.55910139   -18488.68314507
  entropy T*S    EENTRO =         0.03805454
  eigenvalues    EBANDS =     -3969.79411168
  atomic energy  EATOM  =     28128.03026041
  Solvation  Ediel_sol  =         0.00000000
  ---------------------------------------------------
  free energy    TOTEN  =      -123.10933469 eV

  energy without entropy =     -123.14738923  energy(sigma->0) =     -123.12201954


--------------------------------------------------------------------------------------------------------




--------------------------------------- Iteration      1(  24)  ---------------------------------------


    POTLOK:  cpu time    0.0754: real time    0.0826
    SETDIJ:  cpu time    0.0027: real time    0.0027
    EDDIAG:  cpu time    2.0205: real time    2.0232
  RMM-DIIS:  cpu time    1.5732: real time    1.5761
    ORTHCH:  cpu time    0.3446: real time    0.3452
       DOS:  cpu time    0.0016: real time    0.0016
    CHARGE:  cpu time    0.1174: real time    0.1176
    MIXING:  cpu time    0.0021: real time    0.0021
    --------------------------------------------
      LOOP:  cpu time    4.1375: real time    4.1511

 eigenvalue-minimisations  :  8637
 total energy-change (2. order) : 0.2175212E-01  (-0.3750520E+00)
 number of electron     288.0000122 magnetization 
 augmentation part       49.8216442 magnetization 

 Broyden mixing:
  rms(total) = 0.37027E-01    rms(broyden)= 0.36935E-01
  rms(prec ) = 0.39822E-01
  weight for this iteration     100.00

 eigenvalues of (default mixing * dielectric matrix)
  average eigenvalue GAMMA=   0.7733
  2.9752  2.2204  2.2204  1.3055  1.1769  0.9193  0.7547  0.7547  0.4591  0.4402
  0.4402  0.3034  0.3034  0.1906  0.1906  0.0286  0.0068  0.0016  0.0016

 Free energy of the ion-electron system (eV)
  ---------------------------------------------------
  alpha Z        PSCENC =       366.02850164
  Ewald energy   TEWEN  =   1276788.50983538
  -Hartree energ DENC   =  -1302634.84468939
  -exchange      EXHF   =         0.00000000
  -V(xc)+E(xc)   XCENC  =       571.01752189
  PAW double counting   =     19116.56109898   -18488.68533627
  entropy T*S    EENTRO =         0.02903224
  eigenvalues    EBANDS =     -3969.73380744
  atomic energy  EATOM  =     28128.03026041
  Solvation  Ediel_sol  =         0.00000000
  ---------------------------------------------------
  free energy    TOTEN  =      -123.08758257 eV

  energy without entropy =     -123.11661481  energy(sigma->0) =     -123.09725998


--------------------------------------------------------------------------------------------------------




[...]
    217       7.8503      0.00000
    218       7.8515      0.00000
    219       7.9791      0.00000
    220       8.0099      0.00000
    221       8.0122      0.00000
    222       8.1323      0.00000
    223       8.1885      0.00000
    224       8.1903      0.00000
    225       8.4191      0.00000
    226       8.4196      0.00000
    227       8.4213      0.00000
    228       8.4342      0.00000
    229       8.4395      0.00000
    230       8.4418      0.00000
    231       8.4612      0.00000
    232       8.4743      0.00000
    233       8.4761      0.00000
    234       8.5156      0.00000
    235       8.5246      0.00000
    236       8.5260      0.00000
    237       8.5676      0.00000
    238       8.5994      0.00000
    239       8.6004      0.00000
    240       8.6528      0.00000
    241       8.6898      0.00000
    242       8.6911      0.00000
    243       8.7087      0.00000
    244       8.8307      0.00000
    245       8.8338      0.00000
    246       8.8435      0.00000
    247       8.8480      0.00000
    248       8.8551      0.00000
    249       8.8553      0.00000
    250       8.9644      0.00000
    251       8.9670      0.00000
    252       8.9768      0.00000
    253       9.0618      0.00000
    254       9.0966      0.00000
    255       9.0987      0.00000
    256       9.2225      0.00000


--------------------------------------------------------------------------------------------------------


 soft charge-density along one line, spin component           1
         0         1         2         3         4         5         6         7         8         9
 total charge-density along one line
 
 pseudopotential strength for first ion, spin component:           1
-22.922   0.000  -0.000  -0.008  -0.000  16.386  -0.000   0.000
  0.000 -22.917  -0.000  -0.000  -0.008  -0.000  16.382   0.000
 -0.000  -0.000 -22.929   0.000   0.000   0.000   0.000  16.392
 -0.008  -0.000   0.000 -22.917   0.000   0.007   0.000  -0.000
 -0.000  -0.008   0.000   0.000 -22.922   0.000   0.007  -0.000
 16.386  -0.000   0.000   0.007   0.000  -7.551   0.000  -0.000
 -0.000  16.382   0.000   0.000   0.007   0.000  -7.548  -0.000
  0.000   0.000  16.392  -0.000  -0.000  -0.000  -0.000  -7.556
  0.007   0.000  -0.000  16.382  -0.000  -0.005  -0.000   0.000
  0.000   0.007  -0.000  -0.000  16.386  -0.000  -0.005   0.000
  0.000   0.000  -0.001  -0.000  -0.000  -0.000   0.000   0.000
 -0.000   0.000   0.000  -0.000   0.000  -0.000   0.000  -0.000
 -0.000   0.010  -0.000   0.000  -0.000   0.000  -0.005   0.000
  0.000   0.000   0.011  -0.000  -0.000   0.000  -0.000  -0.005
 -0.000   0.000   0.000   0.010  -0.000   0.000   0.000  -0.000
  0.000  -0.002   0.000  -0.000  -0.000  -0.000   0.002  -0.000
 -0.000  -0.000  -0.003   0.000   0.000   0.000   0.000   0.003
 -0.000  -0.000  -0.000  -0.002   0.000   0.000   0.000   0.000
 total augmentation occupancy for first ion, spin component:           1
  1.996  -0.000   0.000  -0.005  -0.000   0.008  -0.000   0.000  -0.011  -0.000  -0.000  -0.000  -0.000   0.000  -0.014   0.000
 -0.000   1.998   0.000  -0.000  -0.005  -0.000   0.015   0.000  -0.000  -0.011   0.000   0.000   0.023   0.000  -0.000   0.008
  0.000   0.000   1.992  -0.000  -0.000   0.000   0.000  -0.001  -0.000  -0.000  -0.001  -0.001   0.000   0.003  -0.000  -0.000
 -0.005  -0.000  -0.000   1.998   0.000  -0.011  -0.000  -0.000   0.015   0.000   0.000  -0.000  -0.000   0.000   0.023  -0.000
 -0.000  -0.005  -0.000   0.000   1.996  -0.000  -0.011  -0.000   0.000   0.008   0.000   0.000  -0.014  -0.000   0.000   0.005
  0.008  -0.000   0.000  -0.011  -0.000   0.033  -0.000   0.000  -0.025  -0.000  -0.000  -0.000  -0.000  -0.000  -0.040   0.000
 -0.000   0.015   0.000  -0.000  -0.011  -0.000   0.049   0.000  -0.000  -0.025   0.000   0.000   0.048   0.000  -0.000  -0.006
  0.000   0.000  -0.001  -0.000  -0.000   0.000   0.000   0.015  -0.000  -0.000  -0.003  -0.001   0.000  -0.010  -0.000  -0.000
 -0.011  -0.000  -0.000   0.015   0.000  -0.025  -0.000  -0.000   0.049   0.000   0.000  -0.000  -0.000   0.000   0.048   0.000
 -0.000  -0.011  -0.000   0.000   0.008  -0.000  -0.025  -0.000   0.000   0.033   0.000   0.000  -0.040   0.000   0.000   0.004
 -0.000   0.000  -0.001   0.000   0.000  -0.000   0.000  -0.003   0.000   0.000   2.172  -0.070   0.000  -0.103   0.000   0.000
 -0.000   0.000  -0.001  -0.000   0.000  -0.000   0.000  -0.001  -0.000   0.000  -0.070   0.033   0.000   0.042   0.000  -0.000
 -0.000   0.023   0.000  -0.000  -0.014  -0.000   0.048   0.000  -0.000  -0.040   0.000   0.000   0.763   0.000  -0.000  -0.085
  0.000   0.000   0.003   0.000  -0.000  -0.000   0.000  -0.010   0.000   0.000  -0.103   0.042   0.000   0.761   0.000  -0.000
 -0.014  -0.000  -0.000   0.023   0.000  -0.040  -0.000  -0.000   0.048   0.000  -0.000  -0.000  -0.000   0.000   0.763   0.000
  0.000   0.008  -0.000  -0.000   0.005   0.000  -0.006  -0.000   0.000   0.004   0.000   0.000  -0.085  -0.000   0.000   0.013
  0.000  -0.000   0.017  -0.000  -0.000   0.000  -0.000   0.000  -0.000  -0.000   0.010  -0.003  -0.000  -0.081  -0.000   0.000
  0.005  -0.000   0.000   0.008  -0.000   0.004   0.000   0.000  -0.006  -0.000   0.000   0.000   0.000  -0.000  -0.085  -0.000


------------------------ aborting loop because EDIFF is reached ----------------------------------------


 


 total charge     
 
# of ion       s       p       d       tot
------------------------------------------
    1        1.619   1.034   9.949  12.603
    2        1.620   1.033   9.949  12.602
    3        1.619   1.034   9.949  12.603
    4        1.619   1.035   9.949  12.603
    5        1.619   1.034   9.949  12.603
    6        1.619   1.034   9.949  12.603
    7        1.620   1.033   9.949  12.602
    8        1.619   1.035   9.949  12.603
    9        1.619   1.034   9.949  12.603
   10        1.619   1.034   9.949  12.603
   11        1.619   1.035   9.949  12.603
   12        1.619   1.034   9.949  12.602
   13        1.467   2.313   0.018   3.799
   14        1.482   2.264   0.018   3.764
   15        1.480   2.268   0.018   3.766
   16        1.467   2.314   0.018   3.800
   17        1.482   2.264   0.018   3.764
   18        1.482   2.263   0.018   3.763
   19        1.467   2.313   0.018   3.799
   20        1.482   2.263   0.018   3.764
   21        1.482   2.263   0.018   3.764
   22        1.467   2.314   0.018   3.799
   23        1.480   2.268   0.018   3.766
   24        1.482   2.263   0.018   3.764
   25        1.467   2.313   0.018   3.799
   26        1.482   2.263   0.018   3.763
   27        1.482   2.263   0.018   3.764
   28        1.467   2.313   0.018   3.799
   29        1.482   2.263   0.018   3.763
   30        1.482   2.264   0.018   3.764
--------------------------------------------------
tot         46.018  53.458 119.717 219.193
 
    CHARGE:  cpu time    0.1079: real time    0.1080
    FORLOC:  cpu time    0.0017: real time    0.0017
    FORNL :  cpu time    0.4505: real time    0.4506
    STRESS:  cpu time    1.4562: real time    1.4566
    FORCOR:  cpu time    0.0472: real time    0.0472
    FORHAR:  cpu time    0.0096: real time    0.0096
    MIXING:  cpu time    0.0006: real time    0.0006
    OFIELD:  cpu time    0.0000: real time    0.0000

  FORCE on cell =-STRESS in cart. coord.  units (eV):
  Direction    XX          YY          ZZ          XY          YZ          ZX
  --------------------------------------------------------------------------------------
  Alpha Z   366.02850   366.02850   366.02850
  Ewald  ************************************     0.00013     0.00014    -0.00025
  Hartree************************************    -0.00003     0.00004    -0.00006
  E(xc)   -1272.09563 -1272.09569 -1272.74582    -0.00006    -0.00000     0.00000
  Local  ************************************    -0.00132    -0.00015     0.00027
  n-local  2004.57436  2003.32756  1996.84783     1.74004    -1.45036     7.33764
  augment  1515.41958  1515.42063  1516.32421     0.00090    -0.00000     0.00001
  Kinetic  2919.52683  2964.37627  2956.81018   -57.84316     0.32329     4.19898
  Fock        0.00000     0.00000     0.00000     0.00000     0.00000     0.00000
  -------------------------------------------------------------------------------------
  Total      -1.41448    -1.41448    -1.19028     0.00000    -0.00000    -0.00000
  in kB      -1.19386    -1.19386    -1.00463     0.00000    -0.00000    -0.00000
  external pressure =       -1.13 kB  Pullay stress =        0.00 kB


 VOLUME and BASIS-vectors are now :
 -----------------------------------------------------------------------------
  energy-cutoff  :      300.00
  volume of cell :     1898.26
      direct lattice vectors                 reciprocal lattice vectors
     4.192584025  0.000000000  0.000000000     0.238516388  0.137707517  0.000000000
    -2.096292193  3.630884169  0.000000000     0.000000000  0.275415010  0.000000000
     0.000000000  0.000000000124.698310675    -0.000000000 -0.000000000  0.008019355

  length of vectors
     4.192584025  4.192584025124.698310675     0.275415010  0.275415010  0.008019355


 FORCES acting on ions
    electron-ion (+dipol)            ewald-force                    non-local-force                 convergence-correction
 -----------------------------------------------------------------------------------------------
   0.204E-02 -.118E-02 0.103E+04   0.367E-03 -.212E-03 -.104E+04   0.953E-17 -.345E-17 0.581E+01   0.123E-07 -.710E-08 0.313E-01
   0.204E-02 -.118E-02 0.118E+05   0.295E-03 -.171E-03 -.118E+05   0.193E-16 -.215E-16 -.591E+01   0.167E-07 -.966E-08 -.182E-01
   -.876E-05 0.576E-05 0.959E+04   -.590E-04 0.340E-04 -.960E+04   -.166E-16 0.140E-16 0.572E+01   -.302E-07 0.175E-07 0.113E-01
   0.904E-05 -.575E-05 0.753E+04   0.597E-04 -.345E-04 -.752E+04   0.383E-16 -.267E-18 -.581E+01   -.662E-08 0.382E-08 0.438E-01
   -.204E-02 0.118E-02 0.531E+04   -.296E-03 0.171E-03 -.532E+04   -.500E-17 -.705E-17 0.581E+01   0.161E-07 -.930E-08 0.450E-01
   -.204E-02 0.118E-02 0.325E+04   -.367E-03 0.212E-03 -.324E+04   0.225E-16 -.597E-17 -.581E+01   0.364E-07 -.210E-07 0.192E-01
   0.205E-02 -.118E-02 -.118E+05   0.368E-03 -.212E-03 0.118E+05   -.480E-17 0.944E-17 0.594E+01   0.393E-07 -.227E-07 0.156E-01
   0.204E-02 -.118E-02 -.103E+04   0.297E-03 -.171E-03 0.104E+04   0.265E-16 -.212E-16 -.582E+01   -.239E-07 0.138E-07 0.821E-01
   -.891E-05 0.564E-05 -.325E+04   -.592E-04 0.342E-04 0.324E+04   -.188E-16 0.675E-17 0.579E+01   0.582E-08 -.336E-08 0.104E+00
   0.890E-05 -.592E-05 -.531E+04   0.596E-04 -.344E-04 0.532E+04   0.135E-16 0.477E-17 -.581E+01   0.105E-07 -.607E-08 0.131E+00
   -.204E-02 0.118E-02 -.753E+04   -.297E-03 0.171E-03 0.752E+04   -.156E-16 -.150E-16 0.581E+01   -.106E-07 0.610E-08 0.122E+00
   -.204E-02 0.118E-02 -.959E+04   -.367E-03 0.212E-03 0.960E+04   0.140E-16 0.704E-17 -.572E+01   -.234E-07 0.135E-07 0.658E-01
   0.578E-07 -.168E-07 0.856E+03   -.147E-06 0.848E-07 -.856E+03   -.765E-20 -.738E-20 -.199E-02   0.928E-08 -.536E-08 0.860E-02
   -.711E-03 0.410E-03 0.254E+02   -.282E-03 0.163E-03 -.224E+02   0.202E-17 -.599E-17 -.300E+01   0.109E-07 -.629E-08 0.191E-01
   0.470E-04 -.270E-04 0.511E+04   -.124E-03 0.717E-04 -.511E+04   0.336E-16 0.544E-17 0.299E+01   0.117E-08 -.677E-09 -.135E-01
   -.716E-03 0.414E-03 0.428E+04   -.243E-03 0.140E-03 -.428E+04   0.329E-18 -.740E-19 0.158E-01   0.165E-08 -.954E-09 -.233E-02
   0.776E-03 -.448E-03 0.345E+04   0.139E-03 -.801E-04 -.345E+04   -.181E-16 -.163E-16 -.298E+01   -.261E-08 0.151E-08 0.676E-02
   -.776E-03 0.448E-03 0.340E+04   -.139E-03 0.802E-04 -.340E+04   0.143E-17 0.494E-17 0.300E+01   0.152E-07 -.878E-08 0.132E-01
   0.717E-03 -.414E-03 0.257E+04   0.243E-03 -.140E-03 -.257E+04   -.106E-18 0.936E-19 0.179E-02   0.130E-07 -.751E-08 0.178E-01
   -.478E-04 0.275E-04 0.174E+04   0.121E-03 -.700E-04 -.173E+04   0.662E-16 0.828E-17 -.300E+01   -.145E-07 0.837E-08 0.165E-01
   0.711E-03 -.410E-03 0.169E+04   0.282E-03 -.163E-03 -.169E+04   0.179E-16 -.981E-17 0.300E+01   -.156E-07 0.900E-08 0.104E-01
   -.385E-06 0.235E-06 -.428E+04   0.996E-06 -.575E-06 0.428E+04   -.622E-18 0.166E-18 -.104E-01   0.586E-08 -.338E-08 0.162E-01
   -.714E-03 0.412E-03 -.511E+04   -.280E-03 0.161E-03 0.511E+04   -.118E-16 -.105E-16 -.299E+01   -.231E-07 0.133E-07 -.648E-02
   0.479E-04 -.275E-04 -.255E+02   -.121E-03 0.700E-04 0.225E+02   0.379E-16 0.338E-17 0.300E+01   0.119E-07 -.689E-08 0.297E-01
   -.716E-03 0.414E-03 -.856E+03   -.243E-03 0.140E-03 0.856E+03   0.184E-18 -.170E-18 -.375E-02   -.757E-08 0.437E-08 0.375E-01
   0.776E-03 -.448E-03 -.169E+04   0.139E-03 -.801E-04 0.169E+04   0.888E-17 0.118E-16 -.300E+01   -.270E-08 0.156E-08 0.433E-01
   -.776E-03 0.448E-03 -.174E+04   -.139E-03 0.802E-04 0.173E+04   -.127E-17 0.170E-16 0.300E+01   0.918E-08 -.530E-08 0.486E-01
   0.717E-03 -.414E-03 -.257E+04   0.243E-03 -.140E-03 0.257E+04   0.251E-19 0.252E-19 -.377E-03   0.170E-07 -.979E-08 0.529E-01
   -.479E-04 0.275E-04 -.340E+04   0.121E-03 -.701E-04 0.340E+04   -.776E-17 0.137E-16 -.300E+01   -.175E-07 0.101E-07 0.408E-01
   0.711E-03 -.410E-03 -.345E+04   0.282E-03 -.163E-03 0.345E+04   0.523E-18 0.534E-17 0.298E+01   0.714E-09 -.412E-09 0.290E-01
 -----------------------------------------------------------------------------------------------
   -.402E-06 0.181E-06 -.104E+01   0.906E-14 -.552E-12 -.728E-11   0.212E-15 -.506E-17 0.185E-01   0.547E-07 -.316E-07 0.102E+01
 
 
 POSITION                                       TOTAL-FORCE (eV/Angst)
 -----------------------------------------------------------------------------------
     -0.00000      2.42059     27.93027        -0.000000      0.000000     -0.001779
     -0.00000      2.42059      3.24661        -0.000000      0.000000     -0.022560
     -0.00000      0.00000      7.14658         0.000000     -0.000000      0.004873
     -0.00000      0.00000     13.63559         0.000000     -0.000000      0.001989
      2.09629      1.21029     17.53946        -0.000000      0.000000     -0.003263
      2.09629      1.21029     24.02699         0.000000     -0.000000      0.001854
     -0.00000      2.42059     59.10753        -0.000000     -0.000000     -0.003007
     -0.00000      2.42059     34.41862        -0.000000      0.000000      0.001522
      0.00000      0.00000     38.31951         0.000000     -0.000000      0.013387
     -0.00000      0.00000     44.81012         0.000000     -0.000000      0.000909
      2.09629      1.21029     48.71378         0.000000     -0.000000     -0.003099
      2.09629      1.21029     55.20336         0.000000     -0.000000     -0.001478
     -0.00000      0.00000     25.97935         0.000000     -0.000000     -0.004040
      2.09629      1.21029     29.49442         0.000000     -0.000000      0.006004
     -0.00000      0.00000      1.68470         0.000000     -0.000000      0.005855
      2.09629      1.21029      5.19958        -0.000000     -0.000000      0.006184
     -0.00000      2.42059      8.71224        -0.000000      0.000000      0.005019
      2.09629      1.21029     12.07163        -0.000000     -0.000000     -0.006322
     -0.00000      2.42059     15.58734        -0.000000      0.000000      0.003108
     -0.00000      0.00000     19.10393         0.000000     -0.000000      0.003956
     -0.00000      2.42059     22.46236         0.000000     -0.000000     -0.002185
     -0.00000      0.00000     57.15077         0.000000     -0.000000      0.001320
      2.09629      1.21029     60.66692         0.000000     -0.000000      0.007539
     -0.00000      0.00000     32.85460         0.000000     -0.000000     -0.005991
      2.09629      1.21029     36.37025         0.000000     -0.000000     -0.005876
     -0.00000      2.42059     39.88530         0.000000     -0.000000     -0.003083
      2.09629      1.21029     43.24549         0.000000     -0.000000     -0.003666
     -0.00000      2.42059     46.76166        -0.000000      0.000000     -0.001230
     -0.00000      0.00000     50.27746         0.000000     -0.000000      0.007670
     -0.00000      2.42059     53.63730         0.000000     -0.000000     -0.003609
 -----------------------------------------------------------------------------------
    total drift:                               -0.000000      0.000000      0.002725


--------------------------------------------------------------------------------------------------------



  FREE ENERGIE OF THE ION-ELECTRON SYSTEM (eV)
  ---------------------------------------------------
  free  energy   TOTEN  =      -122.96689904 eV

  energy  without entropy=     -123.01943682  energy(sigma->0) =     -122.98441164
 
 d Force = 0.3493267E-04[ 0.333E-05, 0.665E-04]  d Energy = 0.3749772E-04-0.257E-05
 d Force =-0.7929497E+01[-0.793E+01,-0.793E+01]  d Ewald  =-0.7929497E+01 0.594E-07


--------------------------------------------------------------------------------------------------------


    POTLOK:  cpu time    0.0607: real time    0.0608


--------------------------------------------------------------------------------------------------------




--------------------------------------------------------------------------------------------------------


  
 reached required accuracy - stopping structural energy minimisation
 writing wavefunctions
     LOOP+:  cpu time   57.8548: real time   58.1403
    4ORBIT:  cpu time    0.0000: real time    0.0000
 


 total charge     
 
# of ion       s       p       d       tot
------------------------------------------
    1        1.619   1.034   9.949  12.603
    2        1.620   1.033   9.949  12.602
    3        1.619   1.034   9.949  12.603
    4        1.619   1.035   9.949  12.603
    5        1.619   1.034   9.949  12.603
    6        1.619   1.034   9.949  12.603
    7        1.620   1.033   9.949  12.602
    8        1.619   1.035   9.949  12.603
    9        1.619   1.034   9.949  12.603
   10        1.619   1.034   9.949  12.603
   11        1.619   1.035   9.949  12.603
   12        1.619   1.034   9.949  12.602
   13        1.467   2.313   0.018   3.799
   14        1.482   2.264   0.018   3.764
   15        1.480   2.268   0.018   3.766
   16        1.467   2.314   0.018   3.800
   17        1.482   2.264   0.018   3.764
   18        1.482   2.263   0.018   3.763
   19        1.467   2.313   0.018   3.799
   20        1.482   2.263   0.018   3.764
   21        1.482   2.263   0.018   3.764
   22        1.467   2.314   0.018   3.799
   23        1.480   2.268   0.018   3.766
   24        1.482   2.263   0.018   3.764
   25        1.467   2.313   0.018   3.799
   26        1.482   2.263   0.018   3.763
   27        1.482   2.263   0.018   3.764
   28        1.467   2.313   0.018   3.799
   29        1.482   2.263   0.018   3.763
   30        1.482   2.264   0.018   3.764
--------------------------------------------------
tot         46.018  53.458 119.717 219.193
 

 total amount of memory used by VASP MPI-rank0    81072. kBytes
=======================================================================

   base      :      30000. kBytes
   nonl-proj :      34283. kBytes
   fftplans  :       5062. kBytes
   grid      :       8024. kBytes
   one-center:        124. kBytes
   wavefun   :       3579. kBytes
 
  
  
 General timing and accounting informations for this job:
 ========================================================
  
                  Total CPU time used (sec):      936.779
                            User time (sec):      911.196
                          System time (sec):       25.583
                         Elapsed time (sec):      948.002
  
                   Maximum memory used (kb):      289348.
                   Average memory used (kb):           0.
  
                          Minor page faults:       204544
                          Major page faults:           47
                 Voluntary context switches:        18162
