Tetradymite Slab                        
           1
     4.192584    0.000000    0.000000
    -2.096292    3.630884    0.000000
     0.000000    0.000000  124.698311
   Bi   Se
  12  18
Direct configuration=     1
   0.33333300  0.66666700  0.22396452
   0.33333300  0.66666700  0.02603573
   0.00000000  0.00000000  0.05729777
   0.00000000  0.00000000  0.10936898
   0.66666700  0.33333300  0.14063102
   0.66666700  0.33333300  0.19270223
   0.33333300  0.66666700  0.47396452
   0.33333300  0.66666700  0.27603573
   0.00000000  0.00000000  0.30729777
   0.00000000  0.00000000  0.35936898
   0.66666700  0.33333300  0.39063102
   0.66666700  0.33333300  0.44270223
   0.00000000  0.00000000  0.20833338
   0.66666700  0.33333300  0.23652503
   0.00000000  0.00000000  0.01347497
   0.66666700  0.33333300  0.04166663
   0.33333300  0.66666700  0.06985853
   0.66666700  0.33333300  0.09680822
   0.33333300  0.66666700  0.12500012
   0.00000000  0.00000000  0.15319178
   0.33333300  0.66666700  0.18014172
   0.00000000  0.00000000  0.45833338
   0.66666700  0.33333300  0.48652503
   0.00000000  0.00000000  0.26347497
   0.66666700  0.33333300  0.29166663
   0.33333300  0.66666700  0.31985853
   0.66666700  0.33333300  0.34680822
   0.33333300  0.66666700  0.37500012
   0.00000000  0.00000000  0.40319178
   0.33333300  0.66666700  0.43014172
Direct configuration=     2
   0.33333300  0.66666700  0.22396869
   0.33333300  0.66666700  0.02603573
  -0.00000000  0.00000000  0.05730288
  -0.00000000  0.00000000  0.10938381
   0.66666700  0.33333300  0.14062917
   0.66666700  0.33333300  0.19271275
   0.33333300  0.66666700  0.47398148
   0.33333300  0.66666700  0.27603964
   0.00000000  0.00000000  0.30729777
  -0.00000000  0.00000000  0.35937078
   0.66666700  0.33333300  0.39061872
   0.66666700  0.33333300  0.44270252
  -0.00000000  0.00000000  0.20834156
   0.66666700  0.33333300  0.23652669
  -0.00000000  0.00000000  0.01347749
   0.66666700  0.33333300  0.04167584
   0.33333300  0.66666700  0.06986829
   0.66666700  0.33333300  0.09679007
   0.33333300  0.66666700  0.12499316
  -0.00000000  0.00000000  0.15321912
   0.33333300  0.66666700  0.18010924
  -0.00000000  0.00000000  0.45831998
   0.66666700  0.33333300  0.48651464
  -0.00000000  0.00000000  0.26346167
   0.66666700  0.33333300  0.29166715
   0.33333300  0.66666700  0.31986537
   0.66666700  0.33333300  0.34678649
   0.33333300  0.66666700  0.37500680
  -0.00000000  0.00000000  0.40320781
   0.33333300  0.66666700  0.43013719
Direct configuration=     3
   0.33333300  0.66666700  0.22396741
   0.33333300  0.66666700  0.02603573
  -0.00000000  0.00000000  0.05730132
  -0.00000000  0.00000000  0.10937927
   0.66666700  0.33333300  0.14062973
   0.66666700  0.33333300  0.19270953
   0.33333300  0.66666700  0.47397629
   0.33333300  0.66666700  0.27603844
   0.00000000  0.00000000  0.30729777
  -0.00000000  0.00000000  0.35937023
   0.66666700  0.33333300  0.39062248
   0.66666700  0.33333300  0.44270243
  -0.00000000  0.00000000  0.20833905
   0.66666700  0.33333300  0.23652618
  -0.00000000  0.00000000  0.01347672
   0.66666700  0.33333300  0.04167302
   0.33333300  0.66666700  0.06986530
   0.66666700  0.33333300  0.09679562
   0.33333300  0.66666700  0.12499529
  -0.00000000  0.00000000  0.15321075
   0.33333300  0.66666700  0.18011918
  -0.00000000  0.00000000  0.45832408
   0.66666700  0.33333300  0.48651782
  -0.00000000  0.00000000  0.26346574
   0.66666700  0.33333300  0.29166699
   0.33333300  0.66666700  0.31986328
   0.66666700  0.33333300  0.34679314
   0.33333300  0.66666700  0.37500476
  -0.00000000  0.00000000  0.40320290
   0.33333300  0.66666700  0.43013857
Direct configuration=     4
   0.33333300  0.66666700  0.22396674
   0.33333300  0.66666700  0.02603573
  -0.00000000  0.00000000  0.05730049
  -0.00000000  0.00000000  0.10937688
   0.66666700  0.33333300  0.14063003
   0.66666700  0.33333300  0.19270783
   0.33333300  0.66666700  0.47397355
   0.33333300  0.66666700  0.27603781
   0.00000000  0.00000000  0.30729777
  -0.00000000  0.00000000  0.35936994
   0.66666700  0.33333300  0.39062447
   0.66666700  0.33333300  0.44270238
  -0.00000000  0.00000000  0.20833773
   0.66666700  0.33333300  0.23652592
  -0.00000000  0.00000000  0.01347631
   0.66666700  0.33333300  0.04167153
   0.33333300  0.66666700  0.06986373
   0.66666700  0.33333300  0.09679855
   0.33333300  0.66666700  0.12499642
  -0.00000000  0.00000000  0.15320634
   0.33333300  0.66666700  0.18012442
  -0.00000000  0.00000000  0.45832624
   0.66666700  0.33333300  0.48651950
  -0.00000000  0.00000000  0.26346789
   0.66666700  0.33333300  0.29166690
   0.33333300  0.66666700  0.31986217
   0.66666700  0.33333300  0.34679665
   0.33333300  0.66666700  0.37500368
  -0.00000000  0.00000000  0.40320032
   0.33333300  0.66666700  0.43013930
Direct configuration=     5
   0.33333300  0.66666700  0.22396563
   0.33333300  0.66666700  0.02603573
  -0.00000000  0.00000000  0.05729913
  -0.00000000  0.00000000  0.10937293
   0.66666700  0.33333300  0.14063053
   0.66666700  0.33333300  0.19270503
   0.33333300  0.66666700  0.47396904
   0.33333300  0.66666700  0.27603677
   0.00000000  0.00000000  0.30729777
  -0.00000000  0.00000000  0.35936946
   0.66666700  0.33333300  0.39062775
   0.66666700  0.33333300  0.44270231
  -0.00000000  0.00000000  0.20833555
   0.66666700  0.33333300  0.23652547
  -0.00000000  0.00000000  0.01347564
   0.66666700  0.33333300  0.04166908
   0.33333300  0.66666700  0.06986113
   0.66666700  0.33333300  0.09680339
   0.33333300  0.66666700  0.12499827
  -0.00000000  0.00000000  0.15319906
   0.33333300  0.66666700  0.18013307
  -0.00000000  0.00000000  0.45832981
   0.66666700  0.33333300  0.48652227
  -0.00000000  0.00000000  0.26347143
   0.66666700  0.33333300  0.29166676
   0.33333300  0.66666700  0.31986035
   0.66666700  0.33333300  0.34680243
   0.33333300  0.66666700  0.37500190
  -0.00000000  0.00000000  0.40319605
   0.33333300  0.66666700  0.43014051
Direct configuration=     6
   0.33333300  0.66666700  0.22396508
   0.33333300  0.66666700  0.02603573
  -0.00000000  0.00000000  0.05729845
  -0.00000000  0.00000000  0.10937095
   0.66666700  0.33333300  0.14063077
   0.66666700  0.33333300  0.19270363
   0.33333300  0.66666700  0.47396678
   0.33333300  0.66666700  0.27603625
   0.00000000  0.00000000  0.30729777
  -0.00000000  0.00000000  0.35936922
   0.66666700  0.33333300  0.39062938
   0.66666700  0.33333300  0.44270227
  -0.00000000  0.00000000  0.20833446
   0.66666700  0.33333300  0.23652525
  -0.00000000  0.00000000  0.01347530
   0.66666700  0.33333300  0.04166785
   0.33333300  0.66666700  0.06985983
   0.66666700  0.33333300  0.09680580
   0.33333300  0.66666700  0.12499920
  -0.00000000  0.00000000  0.15319542
   0.33333300  0.66666700  0.18013739
  -0.00000000  0.00000000  0.45833159
   0.66666700  0.33333300  0.48652365
  -0.00000000  0.00000000  0.26347320
   0.66666700  0.33333300  0.29166669
   0.33333300  0.66666700  0.31985944
   0.66666700  0.33333300  0.34680533
   0.33333300  0.66666700  0.37500101
  -0.00000000  0.00000000  0.40319392
   0.33333300  0.66666700  0.43014111
Direct configuration=     7
   0.33333300  0.66666700  0.22397270
   0.33333300  0.66666700  0.02603573
  -0.00000000  0.00000000  0.05730209
  -0.00000000  0.00000000  0.10936749
   0.66666700  0.33333300  0.14063748
   0.66666700  0.33333300  0.19269983
   0.33333300  0.66666700  0.47398920
   0.33333300  0.66666700  0.27603067
   0.00000000  0.00000000  0.30729777
  -0.00000000  0.00000000  0.35936285
   0.66666700  0.33333300  0.39063343
   0.66666700  0.33333300  0.44270042
  -0.00000000  0.00000000  0.20833667
   0.66666700  0.33333300  0.23652376
  -0.00000000  0.00000000  0.01348590
   0.66666700  0.33333300  0.04167752
   0.33333300  0.66666700  0.06986234
   0.66666700  0.33333300  0.09680350
   0.33333300  0.66666700  0.12499771
  -0.00000000  0.00000000  0.15320064
   0.33333300  0.66666700  0.18013097
  -0.00000000  0.00000000  0.45832101
   0.66666700  0.33333300  0.48651141
  -0.00000000  0.00000000  0.26347181
   0.66666700  0.33333300  0.29166702
   0.33333300  0.66666700  0.31985918
   0.66666700  0.33333300  0.34680153
   0.33333300  0.66666700  0.37500222
  -0.00000000  0.00000000  0.40319562
   0.33333300  0.66666700  0.43013998
Direct configuration=     8
   0.33333300  0.66666700  0.22397941
   0.33333300  0.66666700  0.02603573
  -0.00000000  0.00000000  0.05730529
  -0.00000000  0.00000000  0.10936444
   0.66666700  0.33333300  0.14064340
   0.66666700  0.33333300  0.19269647
   0.33333300  0.66666700  0.47400895
   0.33333300  0.66666700  0.27602575
   0.00000000  0.00000000  0.30729777
  -0.00000000  0.00000000  0.35935724
   0.66666700  0.33333300  0.39063699
   0.66666700  0.33333300  0.44269879
  -0.00000000  0.00000000  0.20833862
   0.66666700  0.33333300  0.23652244
  -0.00000000  0.00000000  0.01349523
   0.66666700  0.33333300  0.04168603
   0.33333300  0.66666700  0.06986456
   0.66666700  0.33333300  0.09680148
   0.33333300  0.66666700  0.12499640
  -0.00000000  0.00000000  0.15320523
   0.33333300  0.66666700  0.18012531
  -0.00000000  0.00000000  0.45831169
   0.66666700  0.33333300  0.48650063
  -0.00000000  0.00000000  0.26347059
   0.66666700  0.33333300  0.29166731
   0.33333300  0.66666700  0.31985895
   0.66666700  0.33333300  0.34679818
   0.33333300  0.66666700  0.37500329
  -0.00000000  0.00000000  0.40319713
   0.33333300  0.66666700  0.43013897
Direct configuration=     9
   0.33333300  0.66666700  0.22398120
   0.33333300  0.66666700  0.02603573
  -0.00000000  0.00000000  0.05730831
  -0.00000000  0.00000000  0.10935606
   0.66666700  0.33333300  0.14064965
   0.66666700  0.33333300  0.19268825
   0.33333300  0.66666700  0.47400644
   0.33333300  0.66666700  0.27602009
   0.00000000  0.00000000  0.30729777
  -0.00000000  0.00000000  0.35935248
   0.66666700  0.33333300  0.39064554
   0.66666700  0.33333300  0.44269694
  -0.00000000  0.00000000  0.20833811
   0.66666700  0.33333300  0.23652443
  -0.00000000  0.00000000  0.01350319
   0.66666700  0.33333300  0.04169201
   0.33333300  0.66666700  0.06986559
   0.66666700  0.33333300  0.09680425
   0.33333300  0.66666700  0.12499853
  -0.00000000  0.00000000  0.15320307
   0.33333300  0.66666700  0.18012974
  -0.00000000  0.00000000  0.45831201
   0.66666700  0.33333300  0.48650540
  -0.00000000  0.00000000  0.26347169
   0.66666700  0.33333300  0.29166657
   0.33333300  0.66666700  0.31985650
   0.66666700  0.33333300  0.34679964
   0.33333300  0.66666700  0.37500065
  -0.00000000  0.00000000  0.40319484
   0.33333300  0.66666700  0.43013770
Direct configuration=    10
   0.33333300  0.66666700  0.22398278
   0.33333300  0.66666700  0.02603573
  -0.00000000  0.00000000  0.05731098
  -0.00000000  0.00000000  0.10934867
   0.66666700  0.33333300  0.14065516
   0.66666700  0.33333300  0.19268099
   0.33333300  0.66666700  0.47400423
   0.33333300  0.66666700  0.27601509
   0.00000000  0.00000000  0.30729777
  -0.00000000  0.00000000  0.35934828
   0.66666700  0.33333300  0.39065308
   0.66666700  0.33333300  0.44269531
  -0.00000000  0.00000000  0.20833766
   0.66666700  0.33333300  0.23652619
  -0.00000000  0.00000000  0.01351021
   0.66666700  0.33333300  0.04169728
   0.33333300  0.66666700  0.06986651
   0.66666700  0.33333300  0.09680670
   0.33333300  0.66666700  0.12500042
  -0.00000000  0.00000000  0.15320117
   0.33333300  0.66666700  0.18013364
  -0.00000000  0.00000000  0.45831229
   0.66666700  0.33333300  0.48650960
  -0.00000000  0.00000000  0.26347267
   0.66666700  0.33333300  0.29166591
   0.33333300  0.66666700  0.31985435
   0.66666700  0.33333300  0.34680092
   0.33333300  0.66666700  0.37499833
  -0.00000000  0.00000000  0.40319281
   0.33333300  0.66666700  0.43013657
