  60  60   1   0
  0.6963547E+02  0.4028518E-09  0.1154188E-08  0.8985869E-08  0.5000000E-15
  1.000000000000000E-004
  CAR 
 Tetradymite Slab                        
      7.01941223    -17.18606340  301     -1.28460537      1.00000000
    -17.186  0.0000E+00  0.0000E+00
    -17.105  0.0000E+00  0.0000E+00
    -17.025  0.0000E+00  0.0000E+00
    -16.944  0.0000E+00  0.0000E+00
    -16.863 -0.1289E-31 -0.1040E-32
    -16.783 -0.1487E-28 -0.1201E-29
    -16.702 -0.7954E-26 -0.6430E-27
    -16.621 -0.3071E-23 -0.2484E-24
    -16.541 -0.8587E-21 -0.6953E-22
    -16.460 -0.1740E-18 -0.1411E-19
    -16.379 -0.2555E-16 -0.2076E-17
    -16.299 -0.2639E-14 -0.2150E-15
    -16.218 -0.2026E-12 -0.1656E-13
    -16.137 -0.1128E-10 -0.9267E-12
    -16.056 -0.4550E-09 -0.3764E-10
    -15.976 -0.1329E-07 -0.1110E-08
    -15.895 -0.2810E-06 -0.2379E-07
    -15.814 -0.4295E-05 -0.3703E-06
    -15.734 -0.4731E-04 -0.4187E-05
    -15.653 -0.3736E-03 -0.3433E-04
    -15.572 -0.2092E-02 -0.2032E-03
    -15.492 -0.8101E-02 -0.8568E-03
    -15.411 -0.2024E-01 -0.2490E-02
    -15.330 -0.2437E-01 -0.4456E-02
    -15.250  0.2850E-01 -0.2157E-02
    -15.169  0.1975E+00  0.1378E-01
    -15.088  0.4632E+00  0.5115E-01
    -15.008  0.6927E+00  0.1070E+00
    -14.927  0.7783E+00  0.1698E+00
    -14.846  0.7841E+00  0.2331E+00
    -14.766  0.8529E+00  0.3019E+00
    -14.685  0.1005E+01  0.3830E+00
    -14.604  0.1130E+01  0.4742E+00
    -14.523  0.1135E+01  0.5658E+00
    -14.443  0.1051E+01  0.6506E+00
    -14.362  0.1025E+01  0.7333E+00
    -14.281  0.1137E+01  0.8250E+00
    -14.201  0.1306E+01  0.9304E+00
    -14.120  0.1454E+01  0.1048E+01
    -14.039  0.1608E+01  0.1177E+01
    -13.959  0.1775E+01  0.1321E+01
    -13.878  0.1970E+01  0.1480E+01
    -13.797  0.2266E+01  0.1663E+01
    -13.717  0.2682E+01  0.1879E+01
    -13.636  0.3208E+01  0.2138E+01
    -13.555  0.3890E+01  0.2452E+01
    -13.475  0.4515E+01  0.2816E+01
    -13.394  0.4449E+01  0.3175E+01
    -13.313  0.3344E+01  0.3445E+01
    -13.233  0.1733E+01  0.3585E+01
    -13.152  0.4851E+00  0.3624E+01
    -13.071 -0.5925E-01  0.3619E+01
    -12.990 -0.1346E+00  0.3608E+01
    -12.910 -0.7165E-01  0.3602E+01
    -12.829 -0.2303E-01  0.3600E+01
    -12.748 -0.5041E-02  0.3600E+01
    -12.668 -0.7792E-03  0.3600E+01
    -12.587 -0.8626E-04  0.3600E+01
    -12.506 -0.6879E-05  0.3600E+01
    -12.426 -0.3962E-06  0.3600E+01
    -12.345 -0.1650E-07  0.3600E+01
    -12.264 -0.4966E-09  0.3600E+01
    -12.184 -0.1081E-10  0.3600E+01
    -12.103 -0.1703E-12  0.3600E+01
    -12.022 -0.1939E-14  0.3600E+01
    -11.942 -0.2555E-25  0.3600E+01
    -11.861 -0.1030E-22  0.3600E+01
    -11.780 -0.3002E-20  0.3600E+01
    -11.699 -0.6316E-18  0.3600E+01
    -11.619 -0.9599E-16  0.3600E+01
    -11.538 -0.1022E-13  0.3600E+01
    -11.457 -0.8055E-12  0.3600E+01
    -11.377 -0.4578E-10  0.3600E+01
    -11.296 -0.1874E-08  0.3600E+01
    -11.215 -0.5519E-07  0.3600E+01
    -11.135 -0.1167E-05  0.3600E+01
    -11.054 -0.1769E-04  0.3600E+01
    -10.973 -0.1912E-03  0.3600E+01
    -10.893 -0.1463E-02  0.3600E+01
    -10.812 -0.7829E-02  0.3599E+01
    -10.731 -0.2843E-01  0.3597E+01
    -10.651 -0.6469E-01  0.3592E+01
    -10.570 -0.6282E-01  0.3587E+01
    -10.489  0.1247E+00  0.3597E+01
    -10.409  0.6487E+00  0.3649E+01
    -10.328  0.1462E+01  0.3767E+01
    -10.247  0.2265E+01  0.3950E+01
    -10.166  0.2723E+01  0.4170E+01
    -10.086  0.2750E+01  0.4391E+01
    -10.005  0.2526E+01  0.4595E+01
     -9.924  0.2214E+01  0.4774E+01
     -9.844  0.1815E+01  0.4920E+01
     -9.763  0.1400E+01  0.5033E+01
     -9.682  0.1155E+01  0.5127E+01
     -9.602  0.1092E+01  0.5215E+01
     -9.521  0.1041E+01  0.5299E+01
     -9.440  0.9573E+00  0.5376E+01
     -9.360  0.9359E+00  0.5451E+01
     -9.279  0.9540E+00  0.5528E+01
     -9.198  0.8660E+00  0.5598E+01
     -9.118  0.6585E+00  0.5651E+01
     -9.037  0.4757E+00  0.5690E+01
     -8.956  0.3948E+00  0.5722E+01
     -8.876  0.3701E+00  0.5751E+01
     -8.795  0.3795E+00  0.5782E+01
     -8.714  0.4550E+00  0.5819E+01
     -8.633  0.5685E+00  0.5865E+01
     -8.553  0.6142E+00  0.5914E+01
     -8.472  0.5275E+00  0.5957E+01
     -8.391  0.3500E+00  0.5985E+01
     -8.311  0.1694E+00  0.5999E+01
     -8.230  0.4681E-01  0.6002E+01
     -8.149 -0.6022E-02  0.6002E+01
     -8.069 -0.1397E-01  0.6001E+01
     -7.988 -0.7680E-02  0.6000E+01
     -7.907 -0.2524E-02  0.6000E+01
     -7.827 -0.5587E-03  0.6000E+01
     -7.746 -0.8663E-04  0.6000E+01
     -7.665 -0.9569E-05  0.6000E+01
     -7.585 -0.7595E-06  0.6000E+01
     -7.504 -0.4352E-07  0.6000E+01
     -7.423 -0.1804E-08  0.6000E+01
     -7.343 -0.5431E-10  0.6000E+01
     -7.262 -0.8626E-11  0.6000E+01
     -7.181 -0.3491E-09  0.6000E+01
     -7.100 -0.1176E-07  0.6000E+01
     -7.020 -0.2845E-06  0.6000E+01
     -6.939 -0.4927E-05  0.6000E+01
     -6.858 -0.6086E-04  0.6000E+01
     -6.778 -0.5328E-03  0.6000E+01
     -6.697 -0.3265E-02  0.6000E+01
     -6.616 -0.1366E-01  0.5999E+01
     -6.536 -0.3653E-01  0.5996E+01
     -6.455 -0.4826E-01  0.5992E+01
     -6.374  0.4208E-01  0.5995E+01
     -6.294  0.3486E+00  0.6023E+01
     -6.213  0.8404E+00  0.6091E+01
     -6.132  0.1267E+01  0.6193E+01
     -6.052  0.1375E+01  0.6304E+01
     -5.971  0.1182E+01  0.6400E+01
     -5.890  0.9471E+00  0.6476E+01
     -5.809  0.8942E+00  0.6548E+01
     -5.729  0.1005E+01  0.6629E+01
     -5.648  0.1150E+01  0.6722E+01
     -5.567  0.1325E+01  0.6829E+01
     -5.487  0.1617E+01  0.6959E+01
     -5.406  0.2031E+01  0.7123E+01
     -5.325  0.2418E+01  0.7318E+01
     -5.245  0.2562E+01  0.7525E+01
     -5.164  0.2394E+01  0.7718E+01
     -5.083  0.2114E+01  0.7889E+01
     -5.003  0.2007E+01  0.8051E+01
     -4.922  0.2132E+01  0.8223E+01
     -4.841  0.2272E+01  0.8406E+01
     -4.761  0.2223E+01  0.8585E+01
     -4.680  0.2083E+01  0.8753E+01
     -4.599  0.2113E+01  0.8924E+01
     -4.519  0.2340E+01  0.9113E+01
     -4.438  0.2505E+01  0.9315E+01
     -4.357  0.2450E+01  0.9513E+01
     -4.276  0.2344E+01  0.9702E+01
     -4.196  0.2420E+01  0.9897E+01
     -4.115  0.2672E+01  0.1011E+02
     -4.034  0.2906E+01  0.1035E+02
     -3.954  0.2986E+01  0.1059E+02
     -3.873  0.2903E+01  0.1082E+02
     -3.792  0.2708E+01  0.1104E+02
     -3.712  0.2495E+01  0.1124E+02
     -3.631  0.2390E+01  0.1143E+02
     -3.550  0.2432E+01  0.1163E+02
     -3.470  0.2547E+01  0.1184E+02
     -3.389  0.2639E+01  0.1205E+02
     -3.308  0.2620E+01  0.1226E+02
     -3.228  0.2422E+01  0.1246E+02
     -3.147  0.2053E+01  0.1262E+02
     -3.066  0.1626E+01  0.1275E+02
     -2.986  0.1333E+01  0.1286E+02
     -2.905  0.1370E+01  0.1297E+02
     -2.824  0.1791E+01  0.1312E+02
     -2.743  0.2412E+01  0.1331E+02
     -2.663  0.2910E+01  0.1355E+02
     -2.582  0.3060E+01  0.1379E+02
     -2.501  0.2907E+01  0.1403E+02
     -2.421  0.2666E+01  0.1424E+02
     -2.340  0.2507E+01  0.1444E+02
     -2.259  0.2480E+01  0.1464E+02
     -2.179  0.2550E+01  0.1485E+02
     -2.098  0.2676E+01  0.1507E+02
     -2.017  0.2896E+01  0.1530E+02
     -1.937  0.3202E+01  0.1556E+02
     -1.856  0.3374E+01  0.1583E+02
     -1.775  0.3199E+01  0.1609E+02
     -1.695  0.2758E+01  0.1631E+02
     -1.614  0.2250E+01  0.1649E+02
     -1.533  0.1722E+01  0.1663E+02
     -1.453  0.1161E+01  0.1672E+02
     -1.372  0.6457E+00  0.1678E+02
     -1.291  0.2765E+00  0.1680E+02
     -1.210  0.7104E-01  0.1680E+02
     -1.130 -0.1187E-01  0.1680E+02
     -1.049 -0.2556E-01  0.1680E+02
     -0.968 -0.1548E-01  0.1680E+02
     -0.888 -0.6770E-02  0.1680E+02
     -0.807 -0.4977E-02  0.1680E+02
     -0.726 -0.5604E-02  0.1680E+02
     -0.646  0.1854E-02  0.1680E+02
     -0.565  0.2745E-01  0.1680E+02
     -0.484  0.6469E-01  0.1681E+02
     -0.404  0.9527E-01  0.1681E+02
     -0.323  0.1344E+00  0.1683E+02
     -0.242  0.2499E+00  0.1685E+02
     -0.162  0.4926E+00  0.1689E+02
     -0.081  0.8206E+00  0.1695E+02
     -0.000  0.1131E+01  0.1704E+02
      0.081  0.1354E+01  0.1715E+02
      0.161  0.1494E+01  0.1727E+02
      0.242  0.1586E+01  0.1740E+02
      0.323  0.1659E+01  0.1753E+02
      0.403  0.1736E+01  0.1767E+02
      0.484  0.1830E+01  0.1782E+02
      0.565  0.1923E+01  0.1798E+02
      0.645  0.2033E+01  0.1814E+02
      0.726  0.2264E+01  0.1832E+02
      0.807  0.2647E+01  0.1854E+02
      0.887  0.2983E+01  0.1878E+02
      0.968  0.3035E+01  0.1902E+02
      1.049  0.2817E+01  0.1925E+02
      1.129  0.2563E+01  0.1946E+02
      1.210  0.2454E+01  0.1965E+02
      1.291  0.2490E+01  0.1986E+02
      1.371  0.2599E+01  0.2007E+02
      1.452  0.2697E+01  0.2028E+02
      1.533  0.2683E+01  0.2050E+02
      1.614  0.2538E+01  0.2070E+02
      1.694  0.2392E+01  0.2090E+02
      1.775  0.2337E+01  0.2109E+02
      1.856  0.2292E+01  0.2127E+02
      1.936  0.2169E+01  0.2145E+02
      2.017  0.2032E+01  0.2161E+02
      2.098  0.2001E+01  0.2177E+02
      2.178  0.2114E+01  0.2194E+02
      2.259  0.2295E+01  0.2213E+02
      2.340  0.2439E+01  0.2232E+02
      2.420  0.2473E+01  0.2252E+02
      2.501  0.2334E+01  0.2271E+02
      2.582  0.2011E+01  0.2287E+02
      2.662  0.1628E+01  0.2301E+02
      2.743  0.1363E+01  0.2312E+02
      2.824  0.1282E+01  0.2322E+02
      2.904  0.1347E+01  0.2333E+02
      2.985  0.1516E+01  0.2345E+02
      3.066  0.1709E+01  0.2359E+02
      3.147  0.1778E+01  0.2373E+02
      3.227  0.1653E+01  0.2386E+02
      3.308  0.1393E+01  0.2398E+02
      3.389  0.1073E+01  0.2406E+02
      3.469  0.7273E+00  0.2412E+02
      3.550  0.4173E+00  0.2416E+02
      3.631  0.2930E+00  0.2418E+02
      3.711  0.5268E+00  0.2422E+02
      3.792  0.1109E+01  0.2431E+02
      3.873  0.1714E+01  0.2445E+02
      3.953  0.1968E+01  0.2461E+02
      4.034  0.1850E+01  0.2476E+02
      4.115  0.1629E+01  0.2489E+02
      4.195  0.1487E+01  0.2501E+02
      4.276  0.1404E+01  0.2512E+02
      4.357  0.1313E+01  0.2523E+02
      4.437  0.1198E+01  0.2532E+02
      4.518  0.1066E+01  0.2541E+02
      4.599  0.8983E+00  0.2548E+02
      4.680  0.6810E+00  0.2554E+02
      4.760  0.4356E+00  0.2557E+02
      4.841  0.2187E+00  0.2559E+02
      4.922  0.7931E-01  0.2560E+02
      5.002  0.2133E-01  0.2560E+02
      5.083  0.8476E-02  0.2560E+02
      5.164  0.4970E-02  0.2560E+02
      5.244  0.5732E-03  0.2560E+02
      5.325 -0.1700E-02  0.2560E+02
      5.406 -0.1390E-02  0.2560E+02
      5.486 -0.5551E-03  0.2560E+02
      5.567 -0.1366E-03  0.2560E+02
      5.648 -0.2229E-04  0.2560E+02
      5.728 -0.2490E-05  0.2560E+02
      5.809 -0.1938E-06  0.2560E+02
      5.890 -0.1062E-07  0.2560E+02
      5.971 -0.4128E-09  0.2560E+02
      6.051 -0.1142E-10  0.2560E+02
      6.132 -0.2259E-12  0.2560E+02
      6.213 -0.3201E-14  0.2560E+02
      6.293 -0.3387E-16  0.2560E+02
      6.374  0.0000E+00  0.2560E+02
      6.455  0.0000E+00  0.2560E+02
      6.535  0.0000E+00  0.2560E+02
      6.616  0.0000E+00  0.2560E+02
      6.697  0.0000E+00  0.2560E+02
      6.777  0.0000E+00  0.2560E+02
      6.858  0.0000E+00  0.2560E+02
      6.939  0.0000E+00  0.2560E+02
      7.019  0.0000E+00  0.2560E+02
      7.01941223    -17.18606340  301     -1.28460537      1.00000000
    -17.186  0.0000E+00  0.0000E+00  0.0000E+00  0.0000E+00  0.0000E+00  0.0000E+00  0.0000E+00  0.0000E+00  0.0000E+00
    -17.105  0.0000E+00  0.0000E+00  0.0000E+00  0.0000E+00  0.0000E+00  0.0000E+00  0.0000E+00  0.0000E+00  0.0000E+00
    -17.025  0.0000E+00  0.0000E+00  0.0000E+00  0.0000E+00  0.0000E+00  0.0000E+00  0.0000E+00  0.0000E+00  0.0000E+00
    -16.944  0.0000E+00  0.0000E+00  0.0000E+00  0.0000E+00  0.0000E+00  0.0000E+00  0.0000E+00  0.0000E+00  0.0000E+00
    -16.863 -0.2196E-32 -0.3595E-34 -0.4320E-34 -0.1168E-62 -0.1602E-63 -0.2041E-37 -0.1160E-36 -0.2621E-64 -0.3850E-37
    -16.783 -0.2646E-29 -0.4316E-31 -0.5632E-31 -0.7720E-33 -0.6861E-35 -0.2726E-34 -0.1609E-33 -0.6832E-37 -0.4335E-34
    -16.702 -0.1421E-26 -0.2315E-28 -0.3051E-28 -0.4914E-30 -0.4318E-32 -0.1486E-31 -0.8788E-31 -0.5554E-34 -0.2304E-31
    -16.621 -0.5501E-24 -0.8958E-26 -0.1191E-25 -0.2175E-27 -0.1905E-29 -0.5833E-29 -0.3455E-28 -0.2606E-31 -0.8839E-29
    -16.541 -0.1543E-21 -0.2511E-23 -0.3370E-23 -0.6958E-25 -0.6073E-27 -0.1660E-26 -0.9848E-26 -0.8877E-29 -0.2454E-26
    -16.460 -0.3135E-19 -0.5096E-21 -0.6911E-21 -0.1608E-22 -0.1398E-24 -0.3429E-24 -0.2036E-23 -0.2198E-26 -0.4929E-24
    -16.379 -0.4613E-17 -0.7494E-19 -0.1028E-18 -0.2686E-20 -0.2325E-22 -0.5138E-22 -0.3055E-21 -0.3955E-24 -0.7166E-22
    -16.299 -0.4772E-15 -0.7744E-17 -0.1075E-16 -0.3152E-18 -0.2715E-20 -0.5424E-20 -0.3229E-19 -0.5083E-22 -0.7310E-20
    -16.218 -0.3668E-13 -0.5945E-15 -0.8361E-15 -0.2734E-16 -0.2344E-18 -0.4258E-18 -0.2537E-17 -0.4771E-20 -0.5536E-18
    -16.137 -0.2042E-11 -0.3305E-13 -0.4716E-13 -0.1714E-14 -0.1462E-16 -0.2427E-16 -0.1447E-15 -0.3289E-18 -0.3032E-16
    -16.056 -0.8222E-10 -0.1329E-11 -0.1926E-11 -0.7764E-13 -0.6583E-15 -0.1003E-14 -0.5986E-14 -0.1650E-16 -0.1199E-14
    -15.976 -0.2394E-08 -0.3865E-10 -0.5697E-10 -0.2540E-11 -0.2140E-13 -0.3006E-13 -0.1794E-12 -0.6021E-15 -0.3424E-13
    -15.895 -0.5031E-07 -0.8112E-09 -0.1219E-08 -0.6007E-10 -0.5027E-12 -0.6530E-12 -0.3895E-11 -0.1599E-13 -0.7042E-12
    -15.814 -0.7621E-06 -0.1227E-07 -0.1883E-07 -0.1028E-08 -0.8535E-11 -0.1027E-10 -0.6115E-10 -0.3091E-12 -0.1041E-10
    -15.734 -0.8289E-05 -0.1333E-06 -0.2094E-06 -0.1273E-07 -0.1049E-09 -0.1168E-09 -0.6927E-09 -0.4351E-11 -0.1101E-09
    -15.653 -0.6434E-04 -0.1033E-05 -0.1668E-05 -0.1143E-06 -0.9325E-09 -0.9572E-09 -0.5637E-08 -0.4456E-10 -0.8263E-09
    -15.572 -0.3520E-03 -0.5647E-05 -0.9412E-05 -0.7426E-06 -0.5994E-08 -0.5619E-08 -0.3265E-07 -0.3314E-09 -0.4327E-08
    -15.492 -0.1318E-02 -0.2115E-04 -0.3666E-04 -0.3469E-05 -0.2765E-07 -0.2327E-07 -0.1318E-06 -0.1779E-08 -0.1521E-07
    -15.411 -0.3122E-02 -0.5020E-04 -0.9195E-04 -0.1139E-04 -0.8937E-07 -0.6530E-07 -0.3513E-06 -0.6790E-08 -0.3198E-07
    -15.330 -0.3209E-02 -0.5273E-04 -0.1105E-03 -0.2437E-04 -0.1882E-06 -0.1087E-06 -0.5046E-06 -0.1775E-07 -0.1882E-07
    -15.250  0.6179E-02  0.9160E-04  0.1342E-03 -0.2377E-04 -0.1861E-06 -0.3069E-07  0.1872E-06 -0.2881E-07  0.1085E-06
    -15.169  0.3308E-01  0.4994E-03  0.9173E-03  0.4087E-04  0.2403E-06  0.3734E-06  0.2843E-05 -0.1921E-07  0.3958E-06
    -15.088  0.7223E-01  0.1070E-02  0.2149E-02  0.2280E-03  0.1328E-05  0.1206E-05  0.7592E-05  0.2259E-07  0.7065E-06
    -15.008  0.1021E+00  0.1498E-02  0.3198E-02  0.5479E-03  0.2893E-05  0.2387E-05  0.1288E-04  0.7104E-07  0.7907E-06
    -14.927  0.1068E+00  0.1733E-02  0.3485E-02  0.9446E-03  0.4941E-05  0.3963E-05  0.1729E-04  0.1933E-06  0.6185E-06
    -14.846  0.9485E-01  0.2257E-02  0.3136E-02  0.1334E-02  0.9250E-05  0.6265E-05  0.2137E-04  0.8593E-06  0.5019E-06
    -14.766  0.8533E-01  0.3474E-02  0.2683E-02  0.1673E-02  0.1993E-04  0.9567E-05  0.2635E-04  0.2993E-05  0.7580E-06
    -14.685  0.8437E-01  0.4970E-02  0.2426E-02  0.2032E-02  0.4129E-04  0.1386E-04  0.3237E-04  0.7437E-05  0.1353E-05
    -14.604  0.8518E-01  0.5831E-02  0.2334E-02  0.2483E-02  0.7350E-04  0.1843E-04  0.3789E-04  0.1418E-04  0.1928E-05
    -14.523  0.8029E-01  0.5604E-02  0.2256E-02  0.2879E-02  0.1104E-03  0.2212E-04  0.4115E-04  0.2201E-04  0.2240E-05
    -14.443  0.7052E-01  0.4685E-02  0.2252E-02  0.3165E-02  0.1463E-03  0.2694E-04  0.4731E-04  0.2967E-04  0.2695E-05
    -14.362  0.6529E-01  0.3859E-02  0.2744E-02  0.3628E-02  0.1835E-03  0.3766E-04  0.6795E-04  0.3778E-04  0.3894E-05
    -14.281  0.6865E-01  0.3544E-02  0.3860E-02  0.4199E-02  0.2249E-03  0.5373E-04  0.1034E-03  0.4751E-04  0.5500E-05
    -14.201  0.7254E-01  0.3543E-02  0.5102E-02  0.4505E-02  0.2694E-03  0.7164E-04  0.1436E-03  0.5899E-04  0.6999E-05
    -14.120  0.7219E-01  0.3636E-02  0.6123E-02  0.4978E-02  0.3309E-03  0.9402E-04  0.1881E-03  0.7437E-04  0.9131E-05
    -14.039  0.7134E-01  0.3905E-02  0.6905E-02  0.6168E-02  0.4259E-03  0.1177E-03  0.2330E-03  0.9616E-04  0.1212E-04
    -13.959  0.7083E-01  0.4363E-02  0.7498E-02  0.7410E-02  0.5554E-03  0.1355E-03  0.2696E-03  0.1282E-03  0.1529E-04
    -13.878  0.7108E-01  0.4982E-02  0.8727E-02  0.7831E-02  0.7578E-03  0.1764E-03  0.3365E-03  0.1923E-03  0.2154E-04
    -13.797  0.7598E-01  0.5958E-02  0.1175E-01  0.7525E-02  0.1097E-02  0.3055E-03  0.5100E-03  0.3153E-03  0.3638E-04
    -13.717  0.8077E-01  0.7540E-02  0.1613E-01  0.7206E-02  0.1491E-02  0.6085E-03  0.8535E-03  0.4637E-03  0.6192E-04
    -13.636  0.7415E-01  0.9940E-02  0.2027E-01  0.7671E-02  0.1671E-02  0.1216E-02  0.1458E-02  0.5330E-03  0.9882E-04
    -13.555  0.5666E-01  0.1272E-01  0.2308E-01  0.8962E-02  0.1505E-02  0.2105E-02  0.2299E-02  0.4651E-03  0.1424E-03
    -13.475  0.3895E-01  0.1381E-01  0.2287E-01  0.9777E-02  0.1198E-02  0.2738E-02  0.2882E-02  0.3249E-03  0.1664E-03
    -13.394  0.2560E-01  0.1122E-01  0.1769E-01  0.8599E-02  0.9534E-03  0.2453E-02  0.2563E-02  0.2019E-03  0.1407E-03
    -13.313  0.1453E-01  0.6092E-02  0.9285E-02  0.5528E-02  0.7089E-03  0.1393E-02  0.1469E-02  0.1141E-03  0.7709E-04
    -13.233  0.5584E-02  0.1711E-02  0.2422E-02  0.2283E-02  0.3909E-03  0.3899E-03  0.4282E-03  0.4821E-04  0.2074E-04
    -13.152  0.5096E-03 -0.2289E-03 -0.4948E-03  0.3312E-03  0.1114E-03 -0.5969E-04 -0.5127E-04  0.7253E-05 -0.3715E-05
    -13.071 -0.9327E-03 -0.4681E-03 -0.7671E-03 -0.2679E-03 -0.1968E-04 -0.1077E-03 -0.1112E-03 -0.6757E-05 -0.6080E-05
    -12.990 -0.7044E-03 -0.2370E-03 -0.3668E-03 -0.2290E-03 -0.3501E-04 -0.5119E-04 -0.5503E-04 -0.5861E-05 -0.2877E-05
    -12.910 -0.2823E-03 -0.7319E-04 -0.1080E-03 -0.9536E-04 -0.1701E-04 -0.1470E-04 -0.1637E-04 -0.2427E-05 -0.8353E-06
    -12.829 -0.7515E-04 -0.1568E-04 -0.2201E-04 -0.2601E-04 -0.4886E-05 -0.2914E-05 -0.3355E-05 -0.6426E-06 -0.1693E-06
    -12.748 -0.1409E-04 -0.2434E-05 -0.3244E-05 -0.4968E-05 -0.9340E-06 -0.4199E-06 -0.4987E-06 -0.1171E-06 -0.2518E-07
    -12.668 -0.1901E-05 -0.2780E-06 -0.3523E-06 -0.6802E-06 -0.1239E-06 -0.4511E-07 -0.5496E-07 -0.1513E-07 -0.2814E-08
    -12.587 -0.1864E-06 -0.2347E-07 -0.2845E-07 -0.6739E-07 -0.1163E-07 -0.3655E-08 -0.4530E-08 -0.1407E-08 -0.2381E-09
    -12.506 -0.1334E-07 -0.1463E-08 -0.1714E-08 -0.4852E-08 -0.7798E-09 -0.2237E-09 -0.2795E-09 -0.9496E-10 -0.1524E-10
    -12.426 -0.6975E-09 -0.6722E-10 -0.7695E-10 -0.2543E-09 -0.3762E-10 -0.1031E-10 -0.1288E-10 -0.4677E-11 -0.7327E-12
    -12.345 -0.2665E-10 -0.2268E-11 -0.2573E-11 -0.9711E-11 -0.1310E-11 -0.3552E-12 -0.4408E-12 -0.1685E-12 -0.2628E-13
    -12.264 -0.7439E-12 -0.5610E-13 -0.6387E-13 -0.2702E-12 -0.3303E-13 -0.9089E-14 -0.1117E-13 -0.4450E-14 -0.6980E-15
    -12.184 -0.1515E-13 -0.1016E-14 -0.1175E-14 -0.5475E-14 -0.6034E-15 -0.1719E-15 -0.2085E-15 -0.8613E-16 -0.1366E-16
    -12.103 -0.2251E-15 -0.1341E-16 -0.1587E-16 -0.8088E-16 -0.8056E-17 -0.2363E-17 -0.2837E-17 -0.1227E-17 -0.1948E-18
    -12.022 -0.2167E-17 -0.1132E-18 -0.1214E-18 -0.8296E-18 -0.7206E-19 -0.2012E-19 -0.2382E-19 -0.1134E-19 -0.1738E-20
    -11.942 -0.2019E-25 -0.2517E-28 -0.8243E-29 -0.2526E-28 -0.1042E-29 -0.1249E-29 -0.1810E-30 -0.2390E-29 -0.4702E-30
    -11.861 -0.8062E-23 -0.1004E-25 -0.3310E-26 -0.1008E-25 -0.4211E-27 -0.4991E-27 -0.7259E-28 -0.9510E-27 -0.1883E-27
    -11.780 -0.2324E-20 -0.2890E-23 -0.9604E-24 -0.2903E-23 -0.1230E-24 -0.1439E-24 -0.2103E-25 -0.2731E-24 -0.5445E-25
    -11.699 -0.4834E-18 -0.6003E-21 -0.2013E-21 -0.6031E-21 -0.2596E-22 -0.2996E-22 -0.4399E-23 -0.5656E-22 -0.1136E-22
    -11.619 -0.7256E-16 -0.8993E-19 -0.3048E-19 -0.9035E-19 -0.3959E-20 -0.4498E-20 -0.6649E-21 -0.8447E-20 -0.1710E-20
    -11.538 -0.7622E-14 -0.9424E-17 -0.3236E-17 -0.9470E-17 -0.4237E-18 -0.4726E-18 -0.7048E-19 -0.8821E-18 -0.1803E-18
    -11.457 -0.5917E-12 -0.7296E-15 -0.2543E-15 -0.7335E-15 -0.3355E-16 -0.3670E-16 -0.5531E-17 -0.6808E-16 -0.1405E-16
    -11.377 -0.3310E-10 -0.4066E-13 -0.1444E-13 -0.4093E-13 -0.1920E-14 -0.2053E-14 -0.3136E-15 -0.3781E-14 -0.7889E-15
    -11.296 -0.1332E-08 -0.1628E-11 -0.5919E-12 -0.1643E-11 -0.7926E-13 -0.8267E-13 -0.1284E-13 -0.1508E-12 -0.3190E-13
    -11.215 -0.3848E-07 -0.4676E-10 -0.1750E-10 -0.4740E-10 -0.2359E-11 -0.2393E-11 -0.3797E-12 -0.4318E-11 -0.9278E-12
    -11.135 -0.7968E-06 -0.9607E-09 -0.3731E-09 -0.9824E-09 -0.5058E-10 -0.4973E-10 -0.8106E-11 -0.8848E-10 -0.1939E-10
    -11.054 -0.1179E-04 -0.1407E-07 -0.5734E-08 -0.1460E-07 -0.7791E-09 -0.7412E-09 -0.1250E-09 -0.1294E-08 -0.2910E-09
    -10.973 -0.1240E-03 -0.1458E-06 -0.6343E-07 -0.1554E-06 -0.8595E-08 -0.7907E-08 -0.1392E-08 -0.1344E-07 -0.3131E-08
    -10.893 -0.9194E-03 -0.1060E-05 -0.5039E-06 -0.1179E-05 -0.6748E-07 -0.6020E-07 -0.1119E-07 -0.9834E-07 -0.2411E-07
    -10.812 -0.4722E-02 -0.5284E-05 -0.2860E-05 -0.6322E-05 -0.3728E-06 -0.3256E-06 -0.6475E-07 -0.4995E-06 -0.1326E-06
    -10.731 -0.1619E-01 -0.1729E-04 -0.1145E-04 -0.2347E-04 -0.1414E-05 -0.1236E-05 -0.2662E-06 -0.1702E-05 -0.5175E-06
    -10.651 -0.3320E-01 -0.3227E-04 -0.3122E-04 -0.5655E-04 -0.3463E-05 -0.3182E-05 -0.7473E-06 -0.3525E-05 -0.1405E-05
    -10.570 -0.2025E-01 -0.9169E-05 -0.5072E-04 -0.6605E-04 -0.4256E-05 -0.4789E-05 -0.1221E-05 -0.2442E-05 -0.2425E-05
    -10.489  0.1010E+00  0.1268E-03 -0.9683E-05  0.8181E-04  0.3543E-05  0.6443E-07  0.4342E-08  0.9774E-05 -0.1243E-05
    -10.409  0.3803E+00  0.3965E-03  0.2108E-03  0.5657E-03  0.2925E-04  0.2304E-04  0.6191E-05  0.3995E-04  0.7624E-05
    -10.328  0.7389E+00  0.6919E-03  0.7185E-03  0.1381E-02  0.7461E-04  0.7391E-04  0.1885E-04  0.8260E-04  0.3095E-04
    -10.247  0.1011E+01  0.8761E-03  0.1466E-02  0.2155E-02  0.1282E-03  0.1452E-03  0.3271E-04  0.1181E-03  0.6938E-04
    -10.166  0.1110E+01  0.9523E-03  0.2164E-02  0.2383E-02  0.1743E-03  0.2087E-03  0.3854E-04  0.1266E-03  0.1117E-03
    -10.086  0.1094E+01  0.1057E-02  0.2422E-02  0.1977E-02  0.2117E-03  0.2399E-03  0.3481E-04  0.1079E-03  0.1432E-03
    -10.005  0.1056E+01  0.1252E-02  0.2089E-02  0.1353E-02  0.2535E-03  0.2387E-03  0.2962E-04  0.8239E-04  0.1580E-03
     -9.924  0.9835E+00  0.1358E-02  0.1406E-02  0.9076E-03  0.2977E-03  0.2106E-03  0.2738E-04  0.7037E-04  0.1526E-03
     -9.844  0.8101E+00  0.1152E-02  0.7753E-03  0.7193E-03  0.3175E-03  0.1571E-03  0.2414E-04  0.7408E-04  0.1234E-03
     -9.763  0.5910E+00  0.7797E-03  0.4567E-03  0.7910E-03  0.2990E-03  0.9975E-04  0.1911E-04  0.8509E-04  0.8136E-04
     -9.682  0.4523E+00  0.6320E-03  0.4745E-03  0.1058E-02  0.2589E-03  0.6913E-04  0.1804E-04  0.9555E-04  0.4787E-04
     -9.602  0.3889E+00  0.8126E-03  0.6826E-03  0.1178E-02  0.2182E-03  0.6258E-04  0.2336E-04  0.9874E-04  0.3040E-04
     -9.521  0.3137E+00  0.1075E-02  0.8892E-03  0.9211E-03  0.1791E-03  0.5572E-04  0.3076E-04  0.9089E-04  0.2168E-04
     -9.440  0.2380E+00  0.1230E-02  0.9802E-03  0.6281E-03  0.1369E-03  0.4410E-04  0.3582E-04  0.7753E-04  0.1691E-04
     -9.360  0.2232E+00  0.1299E-02  0.9686E-03  0.7129E-03  0.9590E-04  0.3836E-04  0.3851E-04  0.6797E-04  0.1550E-04
     -9.279  0.2373E+00  0.1317E-02  0.9191E-03  0.9756E-03  0.6245E-04  0.3740E-04  0.4040E-04  0.6053E-04  0.1481E-04
     -9.198  0.2071E+00  0.1212E-02  0.8289E-03  0.9506E-03  0.3637E-04  0.3161E-04  0.3959E-04  0.4646E-04  0.1186E-04
     -9.118  0.1480E+00  0.9184E-03  0.6446E-03  0.6715E-03  0.1668E-04  0.1995E-04  0.3195E-04  0.2815E-04  0.6814E-05
     -9.037  0.1276E+00  0.5247E-03  0.3925E-03  0.5336E-03  0.4977E-05  0.9370E-05  0.1865E-04  0.1715E-04  0.2146E-05
     -8.956  0.1486E+00  0.2102E-03  0.1826E-03  0.6154E-03  0.6644E-06  0.3786E-05  0.6719E-05  0.1607E-04  0.6247E-07
     -8.876  0.1674E+00  0.6123E-04  0.9219E-04  0.6589E-03  0.1516E-06  0.1716E-05  0.8762E-06  0.1701E-04  0.2167E-05
     -8.795  0.1814E+00  0.3790E-04  0.1277E-03  0.5508E-03  0.4431E-06  0.1397E-05  0.1586E-06  0.1503E-04  0.1029E-04
     -8.714  0.2158E+00  0.7218E-04  0.2549E-03  0.4101E-03  0.6045E-06  0.2857E-05  0.1669E-05  0.1217E-04  0.2454E-04
     -8.633  0.2564E+00  0.1204E-03  0.3979E-03  0.3168E-03  0.5972E-06  0.5846E-05  0.3508E-05  0.1034E-04  0.3936E-04
     -8.553  0.2569E+00  0.1545E-03  0.4559E-03  0.2344E-03  0.4517E-06  0.8491E-05  0.4695E-05  0.8349E-05  0.4499E-04
     -8.472  0.2011E+00  0.1579E-03  0.3823E-03  0.1388E-03  0.2527E-06  0.8830E-05  0.4687E-05  0.5405E-05  0.3705E-04
     -8.391  0.1193E+00  0.1296E-03  0.2318E-03  0.5802E-04  0.1030E-06  0.6770E-05  0.3501E-05  0.2546E-05  0.2181E-04
     -8.311  0.5071E-01  0.8110E-04  0.9560E-04  0.1355E-04  0.2779E-07  0.3794E-05  0.1811E-05  0.7588E-06  0.8666E-05
     -8.230  0.1143E-01  0.3321E-04  0.1849E-04 -0.2211E-05 -0.6173E-09  0.1372E-05  0.4929E-06  0.6459E-08  0.1604E-05
     -8.149 -0.3143E-02  0.4088E-05 -0.7688E-05 -0.4529E-05 -0.7397E-08  0.1022E-06 -0.8150E-07 -0.1642E-06 -0.6928E-06
     -8.069 -0.4607E-02 -0.4686E-05 -0.8888E-05 -0.2845E-05 -0.5593E-08 -0.2314E-06 -0.1495E-06 -0.1179E-06 -0.7968E-06
     -7.988 -0.2438E-02 -0.3629E-05 -0.4351E-05 -0.1135E-05 -0.2453E-08 -0.1654E-06 -0.7472E-07 -0.4889E-07 -0.4006E-06
     -7.907 -0.8081E-03 -0.1387E-05 -0.1365E-05 -0.3103E-06 -0.7081E-09 -0.6258E-07 -0.2241E-07 -0.1348E-07 -0.1308E-06
     -7.827 -0.1834E-03 -0.3396E-06 -0.2963E-06 -0.5926E-07 -0.1397E-09 -0.1541E-07 -0.4528E-08 -0.2568E-08 -0.2964E-07
     -7.746 -0.2934E-04 -0.5694E-07 -0.4559E-07 -0.7977E-08 -0.1920E-10 -0.2612E-08 -0.6415E-09 -0.3433E-09 -0.4766E-08
     -7.665 -0.3351E-05 -0.6713E-08 -0.5030E-08 -0.7618E-09 -0.1859E-11 -0.3116E-09 -0.6486E-10 -0.3252E-10 -0.5483E-09
     -7.585 -0.2751E-06 -0.5639E-09 -0.4002E-09 -0.5186E-10 -0.1277E-12 -0.2646E-10 -0.4720E-11 -0.2196E-11 -0.4532E-10
     -7.504 -0.1628E-07 -0.3397E-10 -0.2303E-10 -0.2525E-11 -0.6258E-14 -0.1609E-11 -0.2483E-12 -0.1061E-12 -0.2700E-11
     -7.423 -0.6965E-09 -0.1473E-11 -0.9601E-12 -0.8833E-13 -0.2196E-15 -0.7034E-13 -0.9469E-14 -0.3683E-14 -0.1161E-12
     -7.343 -0.2155E-10 -0.5652E-13 -0.3130E-13 -0.1513E-13 -0.1076E-16 -0.2259E-14 -0.3189E-15 -0.1989E-15 -0.3623E-14
     -7.262 -0.4931E-12 -0.6796E-12 -0.1495E-12 -0.8395E-12 -0.3433E-15 -0.2990E-14 -0.3706E-14 -0.7034E-14 -0.1306E-14
     -7.181 -0.5185E-12 -0.3168E-10 -0.6963E-11 -0.3919E-10 -0.1622E-13 -0.1379E-12 -0.1727E-12 -0.3320E-12 -0.5825E-13
     -7.100 -0.1713E-10 -0.1061E-08 -0.2337E-09 -0.1312E-08 -0.5525E-12 -0.4640E-11 -0.5779E-11 -0.1124E-10 -0.2000E-11
     -7.020 -0.4120E-09 -0.2546E-07 -0.5616E-08 -0.3144E-07 -0.1355E-10 -0.1119E-09 -0.1384E-09 -0.2727E-09 -0.4955E-10
     -6.939 -0.7085E-08 -0.4361E-06 -0.9637E-07 -0.5372E-06 -0.2390E-09 -0.1925E-08 -0.2367E-08 -0.4718E-08 -0.8859E-09
     -6.858 -0.8680E-07 -0.5308E-05 -0.1175E-05 -0.6513E-05 -0.3023E-08 -0.2356E-07 -0.2874E-07 -0.5797E-07 -0.1141E-07
     -6.778 -0.7524E-06 -0.4555E-04 -0.1011E-04 -0.5557E-04 -0.2729E-07 -0.2034E-06 -0.2459E-06 -0.5017E-06 -0.1054E-06
     -6.697 -0.4556E-05 -0.2715E-03 -0.6043E-04 -0.3286E-03 -0.1741E-06 -0.1222E-05 -0.1461E-05 -0.3013E-05 -0.6924E-06
     -6.616 -0.1877E-04 -0.1091E-02 -0.2438E-03 -0.1303E-02 -0.7685E-06 -0.4962E-05 -0.5847E-05 -0.1218E-04 -0.3174E-05
     -6.536 -0.4914E-04 -0.2722E-02 -0.6137E-03 -0.3183E-02 -0.2230E-05 -0.1263E-04 -0.1453E-04 -0.3058E-04 -0.9706E-05
     -6.455 -0.6183E-04 -0.2932E-02 -0.6821E-03 -0.3191E-02 -0.3564E-05 -0.1455E-04 -0.1555E-04 -0.3328E-04 -0.1714E-04
     -6.374  0.6489E-04  0.5302E-02  0.1117E-02  0.6901E-02  0.4560E-06  0.2114E-04  0.2828E-04  0.5885E-04 -0.3783E-05
     -6.294  0.4718E-03  0.2872E-01  0.6333E-02  0.3424E-01  0.1822E-04  0.1275E-03  0.1519E-03  0.3224E-03  0.7006E-04
     -6.213  0.1097E-02  0.6134E-01  0.1364E-01  0.7065E-01  0.5162E-04  0.2815E-03  0.3218E-03  0.6895E-03  0.2224E-03
     -6.132  0.1612E-02  0.8375E-01  0.1846E-01  0.9397E-01  0.8795E-04  0.3941E-03  0.4344E-03  0.9378E-03  0.4065E-03
     -6.052  0.1754E-02  0.8223E-01  0.1751E-01  0.9149E-01  0.1084E-03  0.3970E-03  0.4268E-03  0.9148E-03  0.5349E-03
     -5.971  0.1659E-02  0.6325E-01  0.1372E-01  0.7298E-01  0.1057E-03  0.3346E-03  0.3600E-03  0.7038E-03  0.5693E-03
     -5.890  0.1707E-02  0.4507E-01  0.1520E-01  0.5574E-01  0.8874E-04  0.3432E-03  0.3593E-03  0.4981E-03  0.5747E-03
     -5.809  0.2076E-02  0.3824E-01  0.2759E-01  0.4542E-01  0.6832E-04  0.5089E-03  0.4793E-03  0.3810E-03  0.6260E-03
     -5.729  0.2692E-02  0.3695E-01  0.4742E-01  0.3684E-01  0.5652E-04  0.7518E-03  0.6534E-03  0.3063E-03  0.6883E-03
     -5.648  0.3617E-02  0.3218E-01  0.6668E-01  0.2920E-01  0.9554E-04  0.9298E-03  0.7989E-03  0.2568E-03  0.7096E-03
     -5.567  0.5013E-02  0.2653E-01  0.8238E-01  0.2980E-01  0.2550E-03  0.1021E-02  0.9241E-03  0.3162E-03  0.7462E-03
     -5.487  0.6717E-02  0.2829E-01  0.9628E-01  0.4196E-01  0.5610E-03  0.1109E-02  0.1070E-02  0.5658E-03  0.8696E-03
     -5.406  0.8358E-02  0.3898E-01  0.1078E+00  0.6062E-01  0.9295E-03  0.1263E-02  0.1216E-02  0.9717E-03  0.1064E-02
     -5.325  0.9636E-02  0.5191E-01  0.1124E+00  0.7726E-01  0.1180E-02  0.1483E-02  0.1294E-02  0.1376E-02  0.1239E-02
     -5.245  0.1014E-01  0.5854E-01  0.1064E+00  0.8288E-01  0.1174E-02  0.1688E-02  0.1250E-02  0.1589E-02  0.1261E-02
     -5.164  0.9638E-02  0.5783E-01  0.9225E-01  0.7555E-01  0.9845E-03  0.1759E-02  0.1100E-02  0.1534E-02  0.1084E-02
     -5.083  0.8961E-02  0.5890E-01  0.7830E-01  0.6739E-01  0.8581E-03  0.1689E-02  0.9857E-03  0.1321E-02  0.8581E-03
     -5.003  0.9711E-02  0.6845E-01  0.7247E-01  0.7387E-01  0.9368E-03  0.1621E-02  0.1085E-02  0.1154E-02  0.7722E-03
     -4.922  0.1218E-01  0.7894E-01  0.7580E-01  0.9373E-01  0.1122E-02  0.1653E-02  0.1409E-02  0.1131E-02  0.8341E-03
     -4.841  0.1431E-01  0.7794E-01  0.8306E-01  0.1057E+00  0.1233E-02  0.1730E-02  0.1716E-02  0.1132E-02  0.8799E-03
     -4.761  0.1396E-01  0.6521E-01  0.8855E-01  0.9384E-01  0.1268E-02  0.1785E-02  0.1758E-02  0.1003E-02  0.7869E-03
     -4.680  0.1198E-01  0.5330E-01  0.9166E-01  0.7284E-01  0.1427E-02  0.1849E-02  0.1599E-02  0.7985E-03  0.6250E-03
     -4.599  0.1119E-01  0.5256E-01  0.9671E-01  0.7099E-01  0.1795E-02  0.1952E-02  0.1543E-02  0.6850E-03  0.5459E-03