   60   60   20    1
  0.6963547E+02  0.4028518E-09  0.1154188E-08  0.8985869E-08  0.5000000E-15
  1.000000000000000E-004
  CAR 
 Tetradymite Slab                        
    336     21    256
 
  0.0000000E+00  0.0000000E+00  0.0000000E+00  0.1538462E-01
    1      -15.186063   1.000000
    2      -15.159685   1.000000
    3      -15.121454   1.000000
    4      -15.079462   1.000000
    5      -15.041378   1.000000
    6      -15.009749   1.000000
    7      -14.673133   1.000000
    8      -14.643871   1.000000
    9      -14.607506   1.000000
   10      -14.576123   1.000000
   11      -14.549743   1.000000
   12      -14.523959   1.000000
   13      -14.403718   1.000000
   14      -14.378474   1.000000
   15      -14.351012   1.000000
   16      -14.322564   1.000000
   17      -14.296013   1.000000
   18      -14.274253   1.000000
   19      -13.815081   1.000000
   20      -13.786108   1.000000
   21      -13.758381   1.000000
   22      -13.736008   1.000000
   23      -13.720985   1.000000
   24      -13.632092   1.000000
   25      -13.612918   1.000000
   26      -13.588136   1.000000
   27      -13.556662   1.000000
   28      -13.525447   1.000000
   29      -13.517880   1.000000
   30      -13.507228   1.000000
   31      -13.487311   1.000000
   32      -13.482120   1.000000
   33      -13.469423   1.000000
   34      -13.459657   1.000000
   35      -13.443188   1.000000
   36      -13.423371   1.000000
   37      -10.204576   1.000000
   38      -10.197005   1.000000
   39      -10.183595   1.000000
   40      -10.157063   1.000000
   41      -10.116271   1.000000
   42      -10.085529   1.000000
   43       -9.937542   1.000000
   44       -9.858892   1.000000
   45       -9.779246   1.000000
   46       -9.709720   1.000000
   47       -9.661973   1.000000
   48       -9.638376   1.000000
   49       -9.559216   1.000000
   50       -9.550578   1.000000
   51       -9.534242   1.000000
   52       -9.519744   1.000000
   53       -9.480623   1.000000
   54       -9.462134   1.000000
   55       -8.532101   1.000000
   56       -8.485016   1.000000
   57       -8.428587   1.000000
   58       -8.377615   1.000000
   59       -8.348177   1.000000
   60       -8.332796   1.000000
   61       -5.810200   1.000000
   62       -5.780282   1.000000
   63       -5.737954   1.000000
   64       -5.694056   1.000000
   65       -5.653424   1.000000
   66       -5.631302   1.000000
   67       -5.223549   1.000000
   68       -5.193181   1.000000
   69       -5.120300   1.000000
   70       -5.043680   1.000000
   71       -4.988197   1.000000
   72       -4.965922   1.000000
   73       -4.880241   1.000000
   74       -4.850733   1.000000
   75       -4.765425   1.000000
   76       -4.750824   1.000000
   77       -4.709757   1.000000
   78       -4.660514   1.000000
   79       -4.608181   1.000000
   80       -4.578833   1.000000
   81       -4.542802   1.000000
   82       -4.485528   1.000000
   83       -4.442062   1.000000
   84       -4.418691   1.000000
   85       -4.407335   1.000000
   86       -4.358682   1.000000
   87       -4.319434   1.000000
   88       -4.303988   1.000000
   89       -4.255140   1.000000
   90       -4.224634   1.000000
   91       -3.866732   1.000000
   92       -3.833597   1.000000
   93       -3.824362   1.000000
   94       -3.819852   1.000000
   95       -3.775747   1.000000
   96       -3.738298   1.000000
   97       -3.735119   1.000000
   98       -3.704940   1.000000
   99       -3.700699   1.000000
  100       -3.690640   1.000000
  101       -3.670737   1.000000
  102       -3.654012   1.000000
  103       -3.607907   1.000000
  104       -3.587708   1.000000
  105       -3.565519   1.000000
  106       -3.554925   1.000000
  107       -3.502601   1.000000
  108       -3.491516   1.000000
  109       -3.465115   1.000000
  110       -3.441132   1.000000
  111       -3.333367   1.000000
  112       -3.303387   1.000000
  113       -3.245349   1.000000
  114       -3.233470   1.000000
  115       -3.207525   1.000000
  116       -3.163847   1.000000
  117       -3.124771   1.000000
  118       -3.069930   1.000000
  119       -3.001813   1.000000
  120       -2.972204   1.000000
  121       -2.937471   1.000000
  122       -2.894155   1.000000
  123       -2.874298   1.000000
  124       -2.850440   1.000000
  125       -2.840002   1.000000
  126       -2.794009   1.000000
  127       -2.767196   1.000000
  128       -2.704113   1.000000
  129       -2.691107   1.000000
  130       -2.615528   1.000000
  131       -2.597272   1.000000
  132       -2.539168   1.000000
  133       -2.474538   1.000000
  134       -2.458886   1.000000
  135       -2.446995   1.000000
  136       -2.419067   1.000000
  137       -2.369319   1.000000
  138       -2.320898   1.000000
  139       -2.311038   1.000000
  140       -2.284830   1.000000
  141       -2.253900   1.000000
  142       -2.244257   1.000000
  143       -2.200386   1.000000
  144       -2.183265   1.000000
  145       -2.173577   1.000000
  146       -2.147919   1.000000
  147       -2.145568   1.000000
  148       -2.123480   1.000000
  149       -2.096475   1.000000
  150       -2.086247   1.000000
  151       -2.079713   1.000000
  152       -2.053609   1.000000
  153       -2.049272   1.000000
  154       -2.014050   1.000002
  155       -1.954712   1.000012
  156       -1.915961   1.000038
  157       -1.694196   1.006826
  158       -1.669832   1.010075
  159       -1.653430   1.012794
  160       -1.645556   1.014250
  161       -1.612362   1.021283
  162       -1.548383   1.034260
  163       -1.481402   1.023384
  164       -1.413667   0.939311
  165       -1.396850   0.901853
  166       -1.359805   0.794632
  167       -1.350482   0.762693
  168       -1.332042   0.694597
  169       -0.333900  -0.000000
  170       -0.305369  -0.000000
  171       -0.295635  -0.000000
  172       -0.215781  -0.000000
  173       -0.135909  -0.000000
  174       -0.098097  -0.000000
  175       -0.066454  -0.000000
  176       -0.020923  -0.000000
  177       -0.007688  -0.000000
  178        0.033984  -0.000000
  179        0.092677  -0.000000
  180        0.100988  -0.000000
  181        0.264874  -0.000000
  182        0.289610  -0.000000
  183        0.352448  -0.000000
  184        0.359551  -0.000000
  185        0.425668  -0.000000
  186        0.461065  -0.000000
  187        0.493777  -0.000000
  188        0.529917  -0.000000
  189        0.703036  -0.000000
  190        0.723538  -0.000000
  191        0.812819  -0.000000
  192        0.836085  -0.000000
  193        0.840585  -0.000000
  194        0.887631  -0.000000
  195        0.927468  -0.000000
  196        0.948391  -0.000000
  197        0.987654  -0.000000
  198        0.999916  -0.000000
  199        1.029318  -0.000000
  200        1.070928  -0.000000
  201        1.114220  -0.000000
  202        1.160060  -0.000000
  203        1.211692  -0.000000
  204        1.244749  -0.000000
  205        1.250646  -0.000000
  206        1.285323  -0.000000
  207        1.316879  -0.000000
  208        1.357230  -0.000000
  209        1.365951  -0.000000
  210        1.408471  -0.000000
  211        1.414787  -0.000000
  212        1.435583  -0.000000
  213        1.438322  -0.000000
  214        1.439141  -0.000000
  215        1.460194  -0.000000
  216        1.473808  -0.000000
  217        1.689136  -0.000000
  218        1.695189  -0.000000
  219        1.715069  -0.000000
  220        1.743950  -0.000000
  221        1.787683  -0.000000
  222        1.816539  -0.000000
  223        1.870198  -0.000000
  224        1.925506  -0.000000
  225        1.961922  -0.000000
  226        2.083877  -0.000000
  227        2.168401  -0.000000
  228        2.193918  -0.000000
  229        2.368768  -0.000000
  230        2.438032  -0.000000
  231        2.526259  -0.000000
  232        2.612575  -0.000000
  233        2.671397  -0.000000
  234        2.700795  -0.000000
  235        2.808780  -0.000000
  236        2.832479  -0.000000
  237        2.854570  -0.000000
  238        2.926382  -0.000000
  239        3.030956  -0.000000
  240        3.089526  -0.000000
  241        3.133110  -0.000000
  242        3.185368  -0.000000
  243        3.252551  -0.000000
  244        3.300553  -0.000000
  245        3.349860  -0.000000
  246        3.397253  -0.000000
  247        3.411311  -0.000000
  248        3.421835  -0.000000
  249        3.792237  -0.000000
  250        3.846166  -0.000000
  251        3.932864  -0.000000
  252        4.042331  -0.000000
  253        4.160208  -0.000000
  254        4.239797   0.000000
  255        4.322315   0.000000
  256        4.398438   0.000000
 
  0.7692308E-01 -0.7602055E-32  0.0000000E+00  0.3076923E-01
    1      -15.148703   1.000000
    2      -15.122523   1.000000
    3      -15.084568   1.000000
    4      -15.042921   1.000000
    5      -15.005149   1.000000
    6      -14.973599   1.000000
    7      -14.640340   1.000000
    8      -14.611413   1.000000
    9      -14.575381   1.000000
   10      -14.544208   1.000000
   11      -14.517828   1.000000
   12      -14.491817   1.000000
   13      -14.370159   1.000000
   14      -14.345421   1.000000
   15      -14.318675   1.000000
   16      -14.291235   1.000000
   17      -14.265027   1.000000
   18      -14.243094   1.000000
   19      -13.791016   1.000000
   20      -13.764127   1.000000
   21      -13.739297   1.000000
   22      -13.719698   1.000000
   23      -13.706874   1.000000
   24      -13.614499   1.000000
   25      -13.593636   1.000000
   26      -13.576560   1.000000
   27      -13.545809   1.000000
   28      -13.513103   1.000000
   29      -13.503922   1.000000
   30      -13.494573   1.000000
   31      -13.472241   1.000000
   32      -13.471983   1.000000
   33      -13.456968   1.000000
   34      -13.449888   1.000000
   35      -13.430669   1.000000
   36      -13.414542   1.000000
   37      -10.223748   1.000000
   38      -10.214956   1.000000
   39      -10.199999   1.000000
   40      -10.172717   1.000000
   41      -10.133982   1.000000
   42      -10.107662   1.000000
   43       -9.936976   1.000000
   44       -9.862039   1.000000
   45       -9.784215   1.000000
   46       -9.716287   1.000000
   47       -9.670381   1.000000
   48       -9.648001   1.000000
   49       -9.569192   1.000000
   50       -9.561417   1.000000
   51       -9.545807   1.000000
   52       -9.531823   1.000000
   53       -9.492995   1.000000
   54       -9.475866   1.000000
   55       -8.573415   1.000000
   56       -8.530507   1.000000
   57       -8.479173   1.000000
   58       -8.432847   1.000000
   59       -8.406329   1.000000
   60       -8.392058   1.000000
   61       -5.793644   1.000000
   62       -5.760776   1.000000
   63       -5.715066   1.000000
   64       -5.667071   1.000000
   65       -5.622573   1.000000
   66       -5.600800   1.000000
   67       -5.216518   1.000000
   68       -5.173909   1.000000
   69       -5.104838   1.000000
   70       -5.058770   1.000000
   71       -5.005859   1.000000
   72       -5.000990   1.000000
   73       -4.927564   1.000000
   74       -4.920684   1.000000
   75       -4.871901   1.000000
   76       -4.809625   1.000000
   77       -4.782215   1.000000
   78       -4.776666   1.000000
   79       -4.722353   1.000000
   80       -4.670897   1.000000
   81       -4.654171   1.000000
   82       -4.602557   1.000000
   83       -4.523409   1.000000
   84       -4.500086   1.000000
   85       -4.483442   1.000000
   86       -4.473041   1.000000
   87       -4.459262   1.000000
   88       -4.430508   1.000000
   89       -4.368177   1.000000
   90       -4.348902   1.000000
   91       -4.270628   1.000000
   92       -4.237632   1.000000
   93       -4.201935   1.000000
   94       -4.155026   1.000000
   95       -4.111676   1.000000
   96       -4.096950   1.000000
   97       -3.998316   1.000000
   98       -3.884881   1.000000
   99       -3.830771   1.000000
  100       -3.813727   1.000000
  101       -3.796305   1.000000
  102       -3.786173   1.000000
  103       -3.502837   1.000000
  104       -3.499286   1.000000
  105       -3.417788   1.000000
  106       -3.406262   1.000000
  107       -3.401971   1.000000
  108       -3.377648   1.000000
  109       -3.370139   1.000000
  110       -3.335079   1.000000
  111       -3.332421   1.000000
  112       -3.276969   1.000000
  113       -3.263700   1.000000
  114       -3.257878   1.000000
  115       -3.240171   1.000000
  116       -3.215752   1.000000
  117       -3.203517   1.000000
  118       -3.169730   1.000000
  119       -3.145401   1.000000
  120       -3.138095   1.000000
  121       -3.103708   1.000000
  122       -3.082636   1.000000
  123       -2.949531   1.000000
  124       -2.927966   1.000000
  125       -2.912420   1.000000
  126       -2.879038   1.000000
  127       -2.695294   1.000000
  128       -2.659392   1.000000
  129       -2.638266   1.000000
  130       -2.631882   1.000000
  131       -2.572465   1.000000
  132       -2.545750   1.000000
  133       -2.524841   1.000000
  134       -2.498402   1.000000
  135       -2.491020   1.000000
  136       -2.460499   1.000000
  137       -2.442586   1.000000
  138       -2.428679   1.000000
  139       -2.411754   1.000000
  140       -2.399416   1.000000
  141       -2.394480   1.000000
  142       -2.380767   1.000000
  143       -2.340607   1.000000
  144       -2.268318   1.000000
  145       -2.148173   1.000000
  146       -2.141083   1.000000
  147       -2.124431   1.000000
  148       -2.104779   1.000000
  149       -2.066907   1.000000
  150       -1.998597   1.000003
  151       -1.988859   1.000004
  152       -1.971347   1.000007
  153       -1.957047   1.000011
  154       -1.917962   1.000036
  155       -1.880322   1.000105
  156       -1.832016   1.000376
  157       -1.614656   1.020762
  158       -1.604537   1.023082
  159       -1.598933   1.024379
  160       -1.591928   1.025994
  161       -1.564450   1.031801
  162       -1.538238   1.035184
  163       -1.467691   1.013979
  164       -1.419812   0.951225
  165       -1.375970   0.845469
  166       -1.370111   0.827741
  167       -1.338441   0.718905
  168       -1.336209   0.710504
  169       -0.147963  -0.000000
  170       -0.112620  -0.000000
  171       -0.073637  -0.000000
  172       -0.038037  -0.000000
  173       -0.026168  -0.000000
  174        0.004260  -0.000000
  175        0.020969  -0.000000
  176        0.068331  -0.000000
  177        0.135748  -0.000000
  178        0.172978  -0.000000
  179        0.192144  -0.000000
  180        0.260400  -0.000000
  181        0.329302  -0.000000
  182        0.346404  -0.000000
  183        0.373312  -0.000000
  184        0.398954  -0.000000
  185        0.459870  -0.000000
  186        0.476006  -0.000000
  187        0.512289  -0.000000
  188        0.550400  -0.000000
  189        0.674120  -0.000000
  190        0.693122  -0.000000
  191        0.746027  -0.000000
  192        0.764226  -0.000000
  193        0.799054  -0.000000
  194        0.820490  -0.000000
  195        0.849113  -0.000000
  196        0.896690  -0.000000
  197        0.911549  -0.000000
  198        0.925197  -0.000000
  199        0.935739  -0.000000
  200        1.114978  -0.000000
  201        1.215128  -0.000000
  202        1.219350  -0.000000
  203        1.245960  -0.000000
  204        1.273345  -0.000000
  205        1.297249  -0.000000
  206        1.339279  -0.000000
  207        1.345847  -0.000000
  208        1.385392  -0.000000
  209        1.403815  -0.000000
  210        1.428702  -0.000000
  211        1.447239  -0.000000
  212        1.476761  -0.000000
  213        1.515490  -0.000000
  214        1.539735  -0.000000
  215        1.677385  -0.000000
  216        1.775208  -0.000000
  217        1.845262  -0.000000
  218        1.854598  -0.000000
  219        1.864228  -0.000000
  220        1.876552  -0.000000
  221        1.887167  -0.000000
  222        1.924791  -0.000000
  223        2.134350  -0.000000
  224        2.138505  -0.000000
  225        2.177219  -0.000000
  226        2.192776  -0.000000
  227        2.222513  -0.000000
  228        2.232169  -0.000000
  229        2.325026  -0.000000
  230        2.411268  -0.000000
  231        2.475858  -0.000000
  232        2.510057  -0.000000
  233        2.531053  -0.000000
  234        2.549523  -0.000000
  235        2.819582  -0.000000
  236        2.843034  -0.000000
  237        2.878407  -0.000000
  238        2.939269  -0.000000
  239        3.016776  -0.000000
  240        3.073710  -0.000000
  241        3.265883  -0.000000
  242        3.334175  -0.000000
  243        3.397429  -0.000000
  244        3.448995  -0.000000
  245        3.461595  -0.000000
  246        3.485483  -0.000000
  247        3.506740  -0.000000
  248        3.568852  -0.000000
  249        3.847181  -0.000000
  250        3.901350  -0.000000
  251        3.988357  -0.000000
  252        4.098102  -0.000000
  253        4.216314   0.000000
  254        4.296771   0.000000
  255        4.379811   0.000000
  256        4.453556   0.000000
 
  0.1538462E+00 -0.1325966E-31  0.0000000E+00  0.3076923E-01
    1      -15.038400   1.000000
    2      -15.012854   1.000000
    3      -14.975751   1.000000
    4      -14.935202   1.000000
    5      -14.898399   1.000000
    6      -14.867086   1.000000
    7      -14.544624   1.000000
    8      -14.516738   1.000000
    9      -14.481735   1.000000
   10      -14.451199   1.000000
   11      -14.424816   1.000000
   12      -14.398152   1.000000
   13      -14.272164   1.000000
   14      -14.249086   1.000000
   15      -14.224703   1.000000
   16      -14.200667   1.000000
   17      -14.174973   1.000000
   18      -14.152654   1.000000
   19      -13.724322   1.000000
   20      -13.704639   1.000000
   21      -13.688448   1.000000
   22      -13.675547   1.000000
   23      -13.668646   1.000000
   24      -13.567315   1.000000
   25      -13.548205   1.000000
   26      -13.541229   1.000000
   27      -13.519267   1.000000
   28      -13.486387   1.000000
   29      -13.466747   1.000000
   30      -13.459950   1.000000
   31      -13.448326   1.000000
   32      -13.437172   1.000000
   33      -13.430188   1.000000
   34      -13.420346   1.000000
   35      -13.388913   1.000000
   36      -13.386788   1.000000
   37      -10.279029   1.000000
   38      -10.268060   1.000000
   39      -10.250679   1.000000
   40      -10.224189   1.000000
   41      -10.193360   1.000000
   42      -10.174312   1.000000
   43       -9.936379   1.000000
   44       -9.874076   1.000000
   45       -9.804327   1.000000
   46       -9.742880   1.000000
   47       -9.702928   1.000000
   48       -9.683823   1.000000
   49       -9.605433   1.000000
   50       -9.597826   1.000000
   51       -9.582553   1.000000
   52       -9.568314   1.000000
   53       -9.532394   1.000000
   54       -9.520507   1.000000
   55       -8.704185   1.000000
   56       -8.672493   1.000000
   57       -8.634843   1.000000
   58       -8.601286   1.000000
   59       -8.582869   1.000000
   60       -8.570938   1.000000
   61       -5.747679   1.000000
   62       -5.713230   1.000000
   63       -5.666047   1.000000
   64       -5.612111   1.000000
   65       -5.555514   1.000000
   66       -5.532574   1.000000
   67       -5.281680   1.000000
   68       -5.273912   1.000000
   69       -5.262556   1.000000
   70       -5.255489   1.000000
   71       -5.247210   1.000000
   72       -5.225097   1.000000
   73       -5.195369   1.000000
   74       -5.128349   1.000000
   75       -5.058236   1.000000
   76       -5.030148   1.000000
   77       -4.995338   1.000000
   78       -4.956553   1.000000
   79       -4.900527   1.000000
   80       -4.877604   1.000000
   81       -4.864152   1.000000
   82       -4.832531   1.000000
   83       -4.819497   1.000000
   84       -4.815646   1.000000
   85       -4.798062   1.000000
   86       -4.792435   1.000000
   87       -4.769510   1.000000
   88       -4.614333   1.000000
   89       -4.606300   1.000000
   90       -4.575649   1.000000
   91       -4.558856   1.000000
   92       -4.543424   1.000000
   93       -4.463733   1.000000
   94       -4.417458   1.000000
   95       -4.355017   1.000000
   96       -4.313636   1.000000
   97       -4.155549   1.000000
   98       -4.040113   1.000000
   99       -4.014631   1.000000
  100       -3.989124   1.000000
  101       -3.942846   1.000000
  102       -3.936703   1.000000
  103       -3.727967   1.000000
  104       -3.724028   1.000000
  105       -3.693681   1.000000
  106       -3.691561   1.000000
  107       -3.683427   1.000000
  108       -3.657020   1.000000
  109       -3.653571   1.000000
  110       -3.609675   1.000000
  111       -3.595736   1.000000
  112       -3.563752   1.000000
  113       -3.546335   1.000000
  114       -3.517816   1.000000
  115       -3.382553   1.000000
  116       -3.367332   1.000000
  117       -3.329494   1.000000
  118       -3.321234   1.000000
  119       -3.308573   1.000000
  120       -3.297679   1.000000
  121       -3.227815   1.000000
  122       -3.143779   1.000000
  123       -3.122702   1.000000
  124       -3.089332   1.000000
  125       -3.064774   1.000000
  126       -3.044562   1.000000
  127       -2.819728   1.000000
  128       -2.765847   1.000000
  129       -2.757838   1.000000
  130       -2.707055   1.000000
  131       -2.673688   1.000000
  132       -2.652077   1.000000
  133       -2.604329   1.000000
  134       -2.555644   1.000000
  135       -2.478253   1.000000
  136       -2.438371   1.000000
  137       -2.385070   1.000000
  138       -2.341450   1.000000
  139       -2.300239   1.000000
  140       -2.250587   1.000000
  141       -2.226498   1.000000
  142       -2.202185   1.000000
  143       -2.173074   1.000000
  144       -2.152176   1.000000
  145       -2.073657   1.000000
  146       -2.063423   1.000000
  147       -2.037165   1.000001
  148       -2.032569   1.000001
  149       -2.022636   1.000001
  150       -1.980422   1.000005
  151       -1.974718   1.000006
  152       -1.942218   1.000017
  153       -1.916657   1.000037
  154       -1.897414   1.000065
  155       -1.876319   1.000118
  156       -1.866156   1.000155
  157       -1.802350   1.000772
  158       -1.789326   1.001041
  159       -1.732643   1.003413
  160       -1.708451   1.005337
  161       -1.692711   1.006998
  162       -1.669604   1.010110
  163       -1.591470   1.026098
  164       -1.588879   1.026689
  165       -1.583113   1.027983
  166       -1.575342   1.029658
  167       -1.555909   1.033236
  168       -1.552518   1.033729
  169       -0.186807  -0.000000
  170       -0.105886  -0.000000
  171        0.001029  -0.000000
  172        0.086211  -0.000000
  173        0.109376  -0.000000
  174        0.138865  -0.000000
  175        0.173952  -0.000000
  176        0.188091  -0.000000
  177        0.307570  -0.000000
  178        0.439767  -0.000000
  179        0.493558  -0.000000
  180        0.499247  -0.000000
  181        0.577374  -0.000000
  182        0.605317  -0.000000
  183        0.625071  -0.000000
  184        0.651567  -0.000000
  185        0.681230  -0.000000
  186        0.689827  -0.000000
  187        0.804703  -0.000000
  188        0.812659  -0.000000
  189        0.827980  -0.000000
  190        0.840453  -0.000000
  191        0.849351  -0.000000
  192        0.856966  -0.000000
  193        0.976502  -0.000000
  194        0.994607  -0.000000
  195        1.019060  -0.000000
  196        1.021267  -0.000000
  197        1.042780  -0.000000
  198        1.070921  -0.000000
  199        1.107621  -0.000000
  200        1.174254  -0.000000
  201        1.256142  -0.000000
  202        1.303418  -0.000000
  203        1.379243  -0.000000
  204        1.398183  -0.000000
  205        1.462451  -0.000000
  206        1.480822  -0.000000
  207        1.532432  -0.000000
  208        1.599656  -0.000000
  209        1.611118  -0.000000
  210        1.680871  -0.000000
  211        1.730689  -0.000000
  212        1.754525  -0.000000
  213        1.776259  -0.000000
  214        1.803539  -0.000000
  215        1.840989  -0.000000
  216        1.857724  -0.000000
  217        1.862512  -0.000000
  218        1.906995  -0.000000
  219        1.978623  -0.000000
  220        2.086514  -0.000000
  221        2.139712  -0.000000
  222        2.151001  -0.000000
  223        2.251616  -0.000000
  224        2.273211  -0.000000
  225        2.283650  -0.000000
  226        2.302562  -0.000000
  227        2.315811  -0.000000
  228        2.344949  -0.000000
  229        2.457519  -0.000000
  230        2.516133  -0.000000
  231        2.585783  -0.000000
  232        2.643983  -0.000000
  233        2.681283  -0.000000
  234        2.699388  -0.000000
  235        2.759038  -0.000000
  236        2.784353  -0.000000
  237        2.805420  -0.000000
  238        2.839513  -0.000000
  239        2.875979  -0.000000
  240        2.889749  -0.000000
  241        3.630471  -0.000000
  242        3.653077  -0.000000
  243        3.750954  -0.000000
  244        3.802176  -0.000000
  245        3.858530  -0.000000
  246        3.903858  -0.000000
  247        3.947470  -0.000000
  248        3.998879  -0.000000
  249        4.012505  -0.000000
  250        4.066221  -0.000000
  251        4.153057  -0.000000
  252        4.260272   0.000000
  253        4.367332   0.000000
  254        4.435471   0.000000
  255        4.520745   0.000000
  256        4.582548   0.000000
 
  0.2307692E+00 -0.1426977E-31  0.0000000E+00  0.3076923E-01
    1      -14.860849   1.000000
    2      -14.836468   1.000000
    3      -14.800939   1.000000
    4      -14.762388   1.000000
    5      -14.727333   1.000000
    6      -14.696412   1.000000
    7      -14.394441   1.000000
    8      -14.368396   1.000000
    9      -14.335233   1.000000
   10      -14.305813   1.000000
   11      -14.279405   1.000000
   12      -14.251763   1.000000
   13      -14.118315   1.000000
   14      -14.098645   1.000000
   15      -14.079093   1.000000
   16      -14.062145   1.000000
   17      -14.034841   1.000000
   18      -14.012883   1.000000
   19      -13.635393   1.000000
   20      -13.632629   1.000000
   21      -13.628398   1.000000
   22      -13.615693   1.000000
   23      -13.609269   1.000000
   24      -13.527344   1.000000
   25      -13.509673   1.000000
   26      -13.490197   1.000000
   27      -13.477313   1.000000
   28      -13.462718   1.000000
   29      -13.441663   1.000000
   30      -13.423826   1.000000
   31      -13.417958   1.000000
   32      -13.416127   1.000000
   33      -13.394519   1.000000
   34      -13.363958   1.000000
   35      -13.336220   1.000000
   36      -13.326223   1.000000
   37      -10.355797   1.000000
   38      -10.345069   1.000000
   39      -10.329095   1.000000
   40      -10.309332   1.000000
   41      -10.291808   1.000000
   42      -10.270456   1.000000
   43       -9.944952   1.000000
   44       -9.903057   1.000000
   45       -9.851507   1.000000
   46       -9.804798   1.000000
   47       -9.774939   1.000000
   48       -9.759064   1.000000
   49       -9.683426   1.000000
   50       -9.671548   1.000000
   51       -9.653166   1.000000
   52       -9.634204   1.000000
   53       -9.605244   1.000000
   54       -9.601340   1.000000
   55       -8.933520   1.000000
   56       -8.916509   1.000000
   57       -8.896738   1.000000
   58       -8.881820   1.000000
   59       -8.869040   1.000000
   60       -8.859647   1.000000
   61       -5.758011   1.000000
   62       -5.754726   1.000000
   63       -5.737459   1.000000
   64       -5.721469   1.000000
   65       -5.691301   1.000000
   66       -5.650343   1.000000
   67       -5.623069   1.000000
   68       -5.619044   1.000000
   69       -5.584301   1.000000
   70       -5.580736   1.000000
   71       -5.522234   1.000000
   72       -5.520118   1.000000
   73       -5.440609   1.000000
   74       -5.361512   1.000000
   75       -5.301607   1.000000
   76       -5.280443   1.000000
   77       -5.250826   1.000000
   78       -5.234718   1.000000
   79       -5.176482   1.000000
   80       -5.125869   1.000000
   81       -5.098396   1.000000
   82       -5.047036   1.000000
   83       -4.978373   1.000000
   84       -4.950997   1.000000
   85       -4.810915   1.000000
   86       -4.804937   1.000000
   87       -4.767228   1.000000
   88       -4.675326   1.000000
   89       -4.662367   1.000000
   90       -4.620574   1.000000
   91       -4.594473   1.000000
   92       -4.541695   1.000000
   93       -4.494933   1.000000
   94       -4.488918   1.000000
   95       -4.469166   1.000000
   96       -4.422082   1.000000
   97       -4.390695   1.000000
   98       -4.370904   1.000000
   99       -4.360862   1.000000
  100       -4.352266   1.000000
  101       -4.242071   1.000000
  102       -4.187689   1.000000
  103       -4.118800   1.000000
  104       -4.110226   1.000000
  105       -4.078676   1.000000
  106       -4.056819   1.000000
  107       -4.043580   1.000000
  108       -4.010211   1.000000
  109       -3.855833   1.000000
  110       -3.822436   1.000000
  111       -3.779660   1.000000
  112       -3.742652   1.000000
  113       -3.700928   1.000000
  114       -3.693432   1.000000
  115       -3.681946   1.000000
  116       -3.676558   1.000000
  117       -3.648058   1.000000
  118       -3.578169   1.000000
  119       -3.510730   1.000000
  120       -3.444633   1.000000
  121       -3.164199   1.000000
  122       -3.161220   1.000000
  123       -3.155283   1.000000
  124       -3.146628   1.000000
  125       -3.120648   1.000000
  126       -3.095344   1.000000
  127       -2.906162   1.000000