Automatically generated mesh
      21
Reciprocal lattice
    0.00000000000000    0.00000000000000    0.00000000000000             1
    0.07692307692308   -0.00000000000000    0.00000000000000             2
    0.15384615384615   -0.00000000000000    0.00000000000000             2
    0.23076923076923   -0.00000000000000    0.00000000000000             2
    0.30769230769231   -0.00000000000000    0.00000000000000             2
    0.38461538461538   -0.00000000000000    0.00000000000000             2
    0.46153846153846   -0.00000000000000    0.00000000000000             2
    0.00000000000000    0.20000000000000    0.00000000000000             2
    0.07692307692308    0.20000000000000    0.00000000000000             4
    0.15384615384615    0.20000000000000    0.00000000000000             4
    0.23076923076923    0.20000000000000    0.00000000000000             4
    0.30769230769231    0.20000000000000    0.00000000000000             4
    0.38461538461538    0.20000000000000    0.00000000000000             4
    0.46153846153846    0.20000000000000    0.00000000000000             4
    0.00000000000000    0.40000000000000    0.00000000000000             2
    0.07692307692308    0.40000000000000    0.00000000000000             4
    0.15384615384615    0.40000000000000    0.00000000000000             4
    0.23076923076923    0.40000000000000    0.00000000000000             4
    0.30769230769231    0.40000000000000    0.00000000000000             4
    0.38461538461538    0.40000000000000    0.00000000000000             4
    0.46153846153846    0.40000000000000    0.00000000000000             4
