       N       E                     dE             d eps       ncg     rms          rms(c)
DAV:   1     0.179009456867E+04    0.17901E+04   -0.85279E+04 10752   0.626E+02
DAV:   2    -0.283856319239E+02   -0.18185E+04   -0.17843E+04 14208   0.146E+02
DAV:   3    -0.243440685613E+03   -0.21506E+03   -0.21327E+03 16128   0.572E+01
DAV:   4    -0.247418256302E+03   -0.39776E+01   -0.39746E+01 12672   0.983E+00
DAV:   5    -0.247493682564E+03   -0.75426E-01   -0.75421E-01 15744   0.132E+00    0.128E+01
RMM:   6    -0.240119455685E+03    0.73742E+01   -0.12214E+01 10752   0.341E+00    0.533E+00
RMM:   7    -0.239891442404E+03    0.22801E+00   -0.11441E+00 10752   0.120E+00    0.271E+00
RMM:   8    -0.239880122063E+03    0.11320E-01   -0.26253E-01 10752   0.730E-01    0.508E-01
RMM:   9    -0.239871597061E+03    0.85250E-02   -0.30970E-02 10752   0.202E-01    0.299E-01
RMM:  10    -0.239866723214E+03    0.48738E-02   -0.71079E-03 10761   0.946E-02    0.163E-01
RMM:  11    -0.239867654537E+03   -0.93132E-03   -0.32993E-03 10752   0.745E-02    0.651E-02
RMM:  12    -0.239867913004E+03   -0.25847E-03   -0.34286E-04 10752   0.227E-02    0.420E-02
RMM:  13    -0.239868839685E+03   -0.92668E-03   -0.46710E-04 10752   0.241E-02    0.272E-02
RMM:  14    -0.239869191456E+03   -0.35177E-03   -0.11121E-04 10752   0.979E-03    0.249E-02
RMM:  15    -0.239869549928E+03   -0.35847E-03   -0.66969E-05 10739   0.855E-03    0.145E-02
RMM:  16    -0.239870482094E+03   -0.93217E-03   -0.11884E-04 10669   0.108E-02    0.766E-03
RMM:  17    -0.239870916032E+03   -0.43394E-03   -0.41217E-05  9772   0.555E-03    0.462E-03
RMM:  18    -0.239871230785E+03   -0.31475E-03   -0.27833E-05  9493   0.438E-03    0.268E-03
RMM:  19    -0.239871360938E+03   -0.13015E-03   -0.78369E-06  8477   0.210E-03    0.169E-03
RMM:  20    -0.239871461060E+03   -0.10012E-03   -0.42149E-06  7627   0.149E-03    0.110E-03
RMM:  21    -0.239871516713E+03   -0.55653E-04   -0.23472E-06  6791   0.104E-03    0.611E-04
RMM:  22    -0.239871545104E+03   -0.28391E-04   -0.73461E-07  5567   0.635E-04    0.384E-04
RMM:  23    -0.239871565251E+03   -0.20147E-04   -0.53481E-07  5768   0.591E-04    0.188E-04
RMM:  24    -0.239871572424E+03   -0.71732E-05   -0.12226E-07  4485   0.370E-04    0.105E-04
RMM:  25    -0.239871576013E+03   -0.35884E-05   -0.50162E-08  3836   0.316E-04    0.594E-05
RMM:  26    -0.239871577846E+03   -0.18333E-05   -0.21914E-08  3257   0.290E-04    0.336E-05
RMM:  27    -0.239871578662E+03   -0.81577E-06   -0.93204E-09  2759   0.277E-04
   1 F= -.23987158E+03 E0= -.23989363E+03  d E =-.239872E+03
       N       E                     dE             d eps       ncg     rms          rms(c)
DAV:   1    -0.239885142585E+03   -0.13565E-01   -0.53920E-01 15104   0.909E-01    0.123E-01
RMM:   2    -0.239886232087E+03   -0.10895E-02   -0.20472E-02 10752   0.181E-01    0.521E-02
RMM:   3    -0.239886088145E+03    0.14394E-03   -0.48313E-04 10769   0.301E-02    0.328E-02
RMM:   4    -0.239886050099E+03    0.38046E-04   -0.18251E-04 10750   0.147E-02    0.114E-02
RMM:   5    -0.239886051079E+03   -0.98092E-06   -0.18165E-05 10214   0.445E-03    0.904E-03
RMM:   6    -0.239886047052E+03    0.40276E-05   -0.74639E-06  9339   0.252E-03    0.634E-03
RMM:   7    -0.239886043768E+03    0.32840E-05   -0.33084E-06  8490   0.177E-03    0.339E-03
RMM:   8    -0.239886046600E+03   -0.28320E-05   -0.70190E-07  6874   0.109E-03    0.148E-03
RMM:   9    -0.239886051050E+03   -0.44502E-05   -0.30116E-07  6409   0.661E-04    0.895E-04
RMM:  10    -0.239886055694E+03   -0.46442E-05   -0.21659E-07  5418   0.489E-04    0.579E-04
RMM:  11    -0.239886061546E+03   -0.58521E-05   -0.41327E-07  6079   0.573E-04    0.341E-04
RMM:  12    -0.239886065976E+03   -0.44299E-05   -0.30071E-07  5036   0.462E-04    0.216E-04
RMM:  13    -0.239886068923E+03   -0.29469E-05   -0.25290E-07  4920   0.437E-04    0.131E-04
RMM:  14    -0.239886070819E+03   -0.18957E-05   -0.17958E-07  4537   0.382E-04    0.676E-05
RMM:  15    -0.239886071801E+03   -0.98170E-06   -0.85579E-08  3842   0.327E-04
   2 F= -.23988607E+03 E0= -.23990825E+03  d E =-.144931E-01
       N       E                     dE             d eps       ncg     rms          rms(c)
DAV:   1    -0.239891609940E+03   -0.55391E-02   -0.10565E+00 12928   0.127E+00    0.173E-01
RMM:   2    -0.239893860050E+03   -0.22501E-02   -0.40895E-02 10752   0.259E-01    0.726E-02
RMM:   3    -0.239893570531E+03    0.28952E-03   -0.95390E-04 10764   0.430E-02    0.462E-02
RMM:   4    -0.239893500801E+03    0.69730E-04   -0.37315E-04 10763   0.210E-02    0.179E-02
RMM:   5    -0.239893479076E+03    0.21725E-04   -0.37416E-05 10684   0.633E-03    0.113E-02
RMM:   6    -0.239893489638E+03   -0.10562E-04   -0.13344E-05  9768   0.346E-03    0.919E-03
RMM:   7    -0.239893479199E+03    0.10439E-04   -0.70515E-06  9299   0.239E-03    0.502E-03
RMM:   8    -0.239893483426E+03   -0.42271E-05   -0.15209E-06  7396   0.154E-03    0.193E-03
RMM:   9    -0.239893492232E+03   -0.88053E-05   -0.60495E-07  6843   0.898E-04    0.116E-03
RMM:  10    -0.239893500987E+03   -0.87552E-05   -0.50667E-07  6380   0.662E-04    0.773E-04
RMM:  11    -0.239893509935E+03   -0.89481E-05   -0.61572E-07  6192   0.651E-04    0.469E-04
RMM:  12    -0.239893517884E+03   -0.79496E-05   -0.64212E-07  5911   0.612E-04    0.291E-04
RMM:  13    -0.239893522529E+03   -0.46445E-05   -0.36235E-07  4960   0.474E-04    0.159E-04
RMM:  14    -0.239893525361E+03   -0.28325E-05   -0.25979E-07  4864   0.435E-04    0.896E-05
RMM:  15    -0.239893526845E+03   -0.14833E-05   -0.13814E-07  4321   0.361E-04    0.562E-05
RMM:  16    -0.239893527729E+03   -0.88426E-06   -0.70480E-08  3756   0.322E-04
   3 F= -.23989353E+03 E0= -.23991591E+03  d E =-.219491E-01
       N       E                     dE             d eps       ncg     rms          rms(c)
DAV:   1    -0.239897075495E+03   -0.35487E-02   -0.38067E-01 11776   0.754E-01    0.954E-02
RMM:   2    -0.239898341593E+03   -0.12661E-02   -0.14970E-02 10752   0.156E-01    0.340E-02
RMM:   3    -0.239898294289E+03    0.47304E-04   -0.31527E-04 10752   0.244E-02    0.223E-02
RMM:   4    -0.239898415018E+03   -0.12073E-03   -0.90754E-05 10766   0.981E-03    0.237E-02
RMM:   5    -0.239898266130E+03    0.14889E-03   -0.52219E-05 10529   0.648E-03    0.736E-03
RMM:   6    -0.239898258778E+03    0.73523E-05   -0.52743E-06  8793   0.221E-03    0.364E-03
RMM:   7    -0.239898258650E+03    0.12795E-06   -0.77731E-07  6832   0.110E-03
   4 F= -.23989826E+03 E0= -.23992067E+03  d E =-.473092E-02
       N       E                     dE             d eps       ncg     rms          rms(c)
DAV:   1    -0.239898055859E+03    0.20292E-03   -0.99710E-01 10752   0.122E+00    0.155E-01
RMM:   2    -0.239901470135E+03   -0.34143E-02   -0.40102E-02 10752   0.255E-01    0.555E-02
RMM:   3    -0.239901340162E+03    0.12997E-03   -0.84529E-04 10758   0.399E-02    0.367E-02
RMM:   4    -0.239901637375E+03   -0.29721E-03   -0.23717E-04 10779   0.159E-02    0.383E-02
RMM:   5    -0.239901262033E+03    0.37534E-03   -0.14033E-04 10752   0.107E-02    0.126E-02
RMM:   6    -0.239901239367E+03    0.22666E-04   -0.15779E-05  9788   0.368E-03    0.607E-03
RMM:   7    -0.239901239914E+03   -0.54793E-06   -0.22316E-06  7911   0.172E-03
   5 F= -.23990124E+03 E0= -.23992371E+03  d E =-.771219E-02
       N       E                     dE             d eps       ncg     rms          rms(c)
DAV:   1    -0.239903493936E+03   -0.22546E-02   -0.39015E-01 11520   0.773E-01    0.105E-01
RMM:   2    -0.239904826533E+03   -0.13326E-02   -0.16241E-02 10752   0.164E-01    0.459E-02
RMM:   3    -0.239904757735E+03    0.68798E-04   -0.38789E-04 10752   0.263E-02    0.294E-02
RMM:   4    -0.239904739612E+03    0.18123E-04   -0.78743E-05 10796   0.980E-03    0.203E-02
RMM:   5    -0.239904719763E+03    0.19849E-04   -0.43869E-05 10607   0.677E-03    0.714E-03
RMM:   6    -0.239904722387E+03   -0.26240E-05   -0.68819E-06  9170   0.248E-03    0.590E-03
RMM:   7    -0.239904715124E+03    0.72634E-05   -0.18255E-06  7825   0.132E-03    0.276E-03
RMM:   8    -0.239904717038E+03   -0.19142E-05   -0.88055E-07  6834   0.114E-03    0.930E-04
RMM:   9    -0.239904718645E+03   -0.16073E-05   -0.18978E-07  6086   0.633E-04    0.439E-04
RMM:  10    -0.239904719879E+03   -0.12338E-05   -0.46799E-08  3919   0.368E-04    0.287E-04
RMM:  11    -0.239904721347E+03   -0.14684E-05   -0.71351E-08  4357   0.380E-04    0.173E-04
RMM:  12    -0.239904722706E+03   -0.13587E-05   -0.82589E-08  4201   0.369E-04    0.116E-04
RMM:  13    -0.239904724118E+03   -0.14123E-05   -0.10588E-07  4394   0.372E-04    0.671E-05
RMM:  14    -0.239904724853E+03   -0.73504E-06   -0.60989E-08  3687   0.331E-04
   6 F= -.23990472E+03 E0= -.23992721E+03  d E =-.348494E-02
       N       E                     dE             d eps       ncg     rms          rms(c)
DAV:   1    -0.239904025704E+03    0.69841E-03   -0.98327E-01 10880   0.123E+00    0.168E-01
RMM:   2    -0.239907421581E+03   -0.33959E-02   -0.41370E-02 10752   0.264E-01    0.724E-02
RMM:   3    -0.239907236913E+03    0.18467E-03   -0.97649E-04 10752   0.420E-02    0.461E-02
RMM:   4    -0.239907195137E+03    0.41776E-04   -0.19306E-04 10806   0.156E-02    0.317E-02
RMM:   5    -0.239907132443E+03    0.62694E-04   -0.10737E-04 10749   0.107E-02    0.999E-03
RMM:   6    -0.239907134262E+03   -0.18196E-05   -0.10092E-05  9660   0.339E-03    0.713E-03
RMM:   7    -0.239907127614E+03    0.66479E-05   -0.34795E-06  8456   0.175E-03    0.460E-03
RMM:   8    -0.239907126678E+03    0.93630E-06   -0.20574E-06  7641   0.165E-03
   7 F= -.23990713E+03 E0= -.23992964E+03  d E =-.588676E-02
       N       E                     dE             d eps       ncg     rms          rms(c)
DAV:   1    -0.239908124113E+03   -0.99650E-03   -0.48323E-01 11008   0.854E-01    0.112E-01
RMM:   2    -0.239909769339E+03   -0.16452E-02   -0.19818E-02 10752   0.180E-01    0.437E-02
RMM:   3    -0.239909721101E+03    0.48238E-04   -0.46132E-04 10780   0.296E-02    0.279E-02
RMM:   4    -0.239909756268E+03   -0.35168E-04   -0.10358E-04 10757   0.115E-02    0.185E-02
RMM:   5    -0.239909728580E+03    0.27688E-04   -0.38360E-05 10523   0.578E-03    0.944E-03
RMM:   6    -0.239909710662E+03    0.17918E-04   -0.84446E-06  9237   0.251E-03    0.523E-03
RMM:   7    -0.239909707519E+03    0.31430E-05   -0.13093E-06  7332   0.130E-03    0.266E-03
RMM:   8    -0.239909708346E+03   -0.82660E-06   -0.85392E-07  6697   0.111E-03
   8 F= -.23990971E+03 E0= -.23993214E+03  d E =-.258167E-02
       N       E                     dE             d eps       ncg     rms          rms(c)
DAV:   1    -0.239909309683E+03    0.39784E-03   -0.39229E-01 10880   0.769E-01    0.101E-01
RMM:   2    -0.239910641745E+03   -0.13321E-02   -0.16081E-02 10752   0.162E-01    0.394E-02
RMM:   3    -0.239910603077E+03    0.38668E-04   -0.37473E-04 10779   0.267E-02    0.253E-02
RMM:   4    -0.239910639084E+03   -0.36007E-04   -0.84931E-05 10738   0.103E-02    0.175E-02
RMM:   5    -0.239910612945E+03    0.26139E-04   -0.34749E-05 10394   0.539E-03    0.927E-03
RMM:   6    -0.239910593833E+03    0.19112E-04   -0.76537E-06  9144   0.240E-03    0.465E-03
RMM:   7    -0.239910591834E+03    0.19989E-05   -0.10334E-06  7075   0.120E-03    0.242E-03
RMM:   8    -0.239910592741E+03   -0.90666E-06   -0.72266E-07  6521   0.102E-03
   9 F= -.23991059E+03 E0= -.23993295E+03  d E =-.346606E-02
       N       E                     dE             d eps       ncg     rms          rms(c)
DAV:   1    -0.239911090666E+03   -0.49883E-03   -0.45890E-01 10752   0.821E-01    0.105E-01
RMM:   2    -0.239912630458E+03   -0.15398E-02   -0.17903E-02 10752   0.170E-01    0.413E-02
RMM:   3    -0.239912598352E+03    0.32106E-04   -0.40063E-04 10762   0.276E-02    0.258E-02
RMM:   4    -0.239912691175E+03   -0.92823E-04   -0.94797E-05 10768   0.109E-02    0.208E-02
RMM:   5    -0.239912603446E+03    0.87729E-04   -0.43759E-05 10544   0.579E-03    0.823E-03
RMM:   6    -0.239912590465E+03    0.12981E-04   -0.56340E-06  8889   0.220E-03    0.416E-03
RMM:   7    -0.239912589742E+03    0.72314E-06   -0.93956E-07  6910   0.115E-03
  10 F= -.23991259E+03 E0= -.23993491E+03  d E =-.199700E-02
       N       E                     dE             d eps       ncg     rms          rms(c)
DAV:   1    -0.239911228821E+03    0.13616E-02   -0.71796E-01 11008   0.103E+00    0.132E-01
RMM:   2    -0.239913628067E+03   -0.23992E-02   -0.27845E-02 10752   0.212E-01    0.518E-02
RMM:   3    -0.239913577442E+03    0.50624E-04   -0.62210E-04 10761   0.344E-02    0.322E-02
RMM:   4    -0.239913716788E+03   -0.13935E-03   -0.14730E-04 10770   0.136E-02    0.258E-02
RMM:   5    -0.239913583622E+03    0.13317E-03   -0.67502E-05 10761   0.722E-03    0.101E-02
RMM:   6    -0.239913564392E+03    0.19229E-04   -0.86969E-06  9349   0.269E-03    0.518E-03
RMM:   7    -0.239913563227E+03    0.11656E-05   -0.14522E-06  7294   0.139E-03    0.259E-03
RMM:   8    -0.239913564735E+03   -0.15078E-05   -0.83997E-07  6819   0.116E-03    0.957E-04
RMM:   9    -0.239913565793E+03   -0.10579E-05   -0.19733E-07  5859   0.631E-04    0.459E-04
RMM:  10    -0.239913566903E+03   -0.11106E-05   -0.58197E-08  4142   0.395E-04    0.283E-04
RMM:  11    -0.239913568115E+03   -0.12120E-05   -0.54909E-08  3900   0.371E-04    0.161E-04
RMM:  12    -0.239913569107E+03   -0.99210E-06   -0.68372E-08  3798   0.362E-04
  11 F= -.23991357E+03 E0= -.23993584E+03  d E =-.297637E-02
       N       E                     dE             d eps       ncg     rms          rms(c)
DAV:   1    -0.239913671870E+03   -0.10376E-03   -0.25367E-01 11392   0.631E-01    0.816E-02
RMM:   2    -0.239914544467E+03   -0.87260E-03   -0.10459E-02 10752   0.133E-01    0.326E-02
RMM:   3    -0.239914529067E+03    0.15400E-04   -0.26374E-04 10758   0.223E-02    0.228E-02
RMM:   4    -0.239914540054E+03   -0.10986E-04   -0.49981E-05 10772   0.801E-03    0.164E-02
RMM:   5    -0.239914541439E+03   -0.13849E-05   -0.30686E-05 10424   0.545E-03    0.952E-03
RMM:   6    -0.239914516324E+03    0.25114E-04   -0.72092E-06  9161   0.232E-03    0.356E-03
RMM:   7    -0.239914515731E+03    0.59296E-06   -0.51883E-07  6615   0.101E-03
  12 F= -.23991452E+03 E0= -.23993682E+03  d E =-.946624E-03
       N       E                     dE             d eps       ncg     rms          rms(c)
DAV:   1    -0.239914451633E+03    0.64692E-04   -0.60578E-02 13696   0.307E-01    0.392E-02
RMM:   2    -0.239914644659E+03   -0.19303E-03   -0.23362E-03 10752   0.629E-02    0.158E-02
RMM:   3    -0.239914642567E+03    0.20919E-05   -0.58489E-05 10747   0.105E-02    0.111E-02
RMM:   4    -0.239914644403E+03   -0.18353E-05   -0.11670E-05 10022   0.387E-03    0.763E-03
RMM:   5    -0.239914644383E+03    0.19487E-07   -0.59443E-06  9335   0.261E-03
  13 F= -.23991464E+03 E0= -.23993695E+03  d E =-.107528E-02
       N       E                     dE             d eps       ncg     rms          rms(c)
DAV:   1    -0.239914644003E+03    0.39928E-06   -0.13605E-01 10752   0.466E-01    0.590E-02
RMM:   2    -0.239915131788E+03   -0.48778E-03   -0.58034E-03 10752   0.999E-02    0.254E-02
RMM:   3    -0.239915127072E+03    0.47157E-05   -0.14118E-04 10752   0.168E-02    0.162E-02
RMM:   4    -0.239915183317E+03   -0.56245E-04   -0.38542E-05 10737   0.653E-03    0.167E-02
RMM:   5    -0.239915128958E+03    0.54359E-04   -0.24482E-05 10000   0.434E-03    0.643E-03
RMM:   6    -0.239915123723E+03    0.52345E-05   -0.38735E-06  8586   0.197E-03    0.276E-03
RMM:   7    -0.239915123320E+03    0.40310E-06   -0.43218E-07  6535   0.887E-04
  14 F= -.23991512E+03 E0= -.23993751E+03  d E =-.478937E-03
       N       E                     dE             d eps       ncg     rms          rms(c)
DAV:   1    -0.239915097696E+03    0.26028E-04   -0.18446E-02 14720   0.171E-01    0.212E-02
RMM:   2    -0.239915156613E+03   -0.58917E-04   -0.71257E-04 10752   0.347E-02    0.909E-03
RMM:   3    -0.239915156471E+03    0.14210E-06   -0.17180E-05 10431   0.585E-03    0.549E-03
RMM:   4    -0.239915159055E+03   -0.25842E-05   -0.36170E-06  8670   0.230E-03    0.400E-03
RMM:   5    -0.239915158627E+03    0.42816E-06   -0.15948E-06  7605   0.143E-03
  15 F= -.23991516E+03 E0= -.23993757E+03  d E =-.514244E-03
       N       E                     dE             d eps       ncg     rms          rms(c)
DAV:   1    -0.239915137981E+03    0.21074E-04   -0.13451E-01 10752   0.464E-01    0.572E-02
RMM:   2    -0.239915623502E+03   -0.48552E-03   -0.56362E-03 10752   0.974E-02    0.271E-02
RMM:   3    -0.239915631368E+03   -0.78665E-05   -0.14583E-04 10752   0.167E-02    0.181E-02
RMM:   4    -0.239915692938E+03   -0.61570E-04   -0.45977E-05 10729   0.665E-03    0.195E-02
RMM:   5    -0.239915610077E+03    0.82861E-04   -0.27090E-05 10082   0.472E-03    0.556E-03
RMM:   6    -0.239915609973E+03    0.10469E-06   -0.39342E-06  8693   0.209E-03
  16 F= -.23991561E+03 E0= -.23993808E+03  d E =-.451346E-03
       N       E                     dE             d eps       ncg     rms          rms(c)
DAV:   1    -0.239915230243E+03    0.37983E-03   -0.14729E-01 10752   0.485E-01    0.603E-02
RMM:   2    -0.239915760579E+03   -0.53034E-03   -0.61993E-03 10752   0.102E-01    0.282E-02
RMM:   3    -0.239915757520E+03    0.30582E-05   -0.15435E-04 10752   0.174E-02    0.176E-02
RMM:   4    -0.239915844895E+03   -0.87374E-04   -0.46865E-05 10743   0.695E-03    0.197E-02
RMM:   5    -0.239915750985E+03    0.93910E-04   -0.29273E-05  9994   0.466E-03    0.552E-03
RMM:   6    -0.239915750065E+03    0.91991E-06   -0.26545E-06  8224   0.193E-03
  17 F= -.23991575E+03 E0= -.23993829E+03  d E =-.591438E-03
       N       E                     dE             d eps       ncg     rms          rms(c)
DAV:   1    -0.239915727294E+03    0.23691E-04   -0.11374E-01 11008   0.422E-01    0.532E-02
RMM:   2    -0.239916163687E+03   -0.43639E-03   -0.49487E-03 10752   0.899E-02    0.214E-02
RMM:   3    -0.239916162713E+03    0.97437E-06   -0.11989E-04 10753   0.152E-02    0.141E-02
RMM:   4    -0.239916229088E+03   -0.66375E-04   -0.32985E-05 10567   0.596E-03    0.164E-02
RMM:   5    -0.239916158995E+03    0.70094E-04   -0.20773E-05  9868   0.409E-03    0.310E-03
RMM:   6    -0.239916159031E+03   -0.36378E-07   -0.92979E-07  7175   0.128E-03
  18 F= -.23991616E+03 E0= -.23993869E+03  d E =-.408966E-03
       N       E                     dE             d eps       ncg     rms          rms(c)
DAV:   1    -0.239914272829E+03    0.18862E-02   -0.59537E-01 10752   0.966E-01    0.121E-01
RMM:   2    -0.239916571542E+03   -0.22987E-02   -0.25822E-02 10752   0.205E-01    0.488E-02
RMM:   3    -0.239916552363E+03    0.19179E-04   -0.62258E-04 10752   0.345E-02    0.319E-02
RMM:   4    -0.239916861443E+03   -0.30908E-03   -0.16546E-04 10790   0.134E-02    0.361E-02
RMM:   5    -0.239916532656E+03    0.32879E-03   -0.10392E-04 10760   0.905E-03    0.884E-03
RMM:   6    -0.239916527115E+03    0.55403E-05   -0.97120E-06  9448   0.305E-03    0.522E-03
RMM:   7    -0.239916525525E+03    0.15899E-05   -0.13919E-06  7265   0.140E-03    0.267E-03
RMM:   8    -0.239916526066E+03   -0.54073E-06   -0.14938E-06  7169   0.140E-03
  19 F= -.23991653E+03 E0= -.23993905E+03  d E =-.776001E-03
       N       E                     dE             d eps       ncg     rms          rms(c)
DAV:   1    -0.239916140774E+03    0.38475E-03   -0.21349E-01 10752   0.590E-01    0.768E-02
RMM:   2    -0.239917002751E+03   -0.86198E-03   -0.99507E-03 10752   0.128E-01    0.334E-02
RMM:   3    -0.239916989536E+03    0.13215E-04   -0.23394E-04 10752   0.214E-02    0.212E-02
RMM:   4    -0.239917070628E+03   -0.81092E-04   -0.59399E-05 10763   0.828E-03    0.211E-02
RMM:   5    -0.239916998086E+03    0.72542E-04   -0.41390E-05 10521   0.570E-03    0.845E-03
RMM:   6    -0.239916985088E+03    0.12998E-04   -0.69842E-06  9213   0.243E-03    0.356E-03
RMM:   7    -0.239916984340E+03    0.74844E-06   -0.62770E-07  6561   0.104E-03
  20 F= -.23991698E+03 E0= -.23993953E+03  d E =-.458274E-03
