Tetradymite Slab                        
           1
     4.028518    0.000000    0.000000
     0.000000   11.541877    0.000000
     0.000000    0.000000   89.858689
   Sb   Se
  24  36
Direct configuration=     1
   0.75000000  0.03641712  0.12685717
   0.25000000  0.96358288  0.08742855
   0.25000000  0.53641712  0.01599998
   0.75000000  0.46358288  0.05542859
   0.25000000  0.33168058  0.11223137
   0.75000000  0.66831942  0.10205434
   0.75000000  0.83168058  0.03062577
   0.25000000  0.16831942  0.04080280
   0.75000000  0.03641712  0.26971431
   0.25000000  0.96358288  0.23028569
   0.25000000  0.53641712  0.15885712
   0.75000000  0.46358288  0.19828574
   0.25000000  0.33168058  0.25508852
   0.75000000  0.66831942  0.24491148
   0.75000000  0.83168058  0.17348291
   0.25000000  0.16831942  0.18365994
   0.75000000  0.03641712  0.41257145
   0.25000000  0.96358288  0.37314283
   0.25000000  0.53641712  0.30171426
   0.75000000  0.46358288  0.34114288
   0.25000000  0.33168058  0.39794566
   0.75000000  0.66831942  0.38776863
   0.75000000  0.83168058  0.31634006
   0.25000000  0.16831942  0.32651709
   0.75000000  0.13291546  0.10042117
   0.25000000  0.86708454  0.11386454
   0.25000000  0.63291546  0.04243597
   0.75000000  0.36708454  0.02899260
   0.25000000  0.19089847  0.13630641
   0.75000000  0.80910153  0.07797930
   0.75000000  0.69089847  0.00655073
   0.25000000  0.30910153  0.06487784
   0.75000000  0.04754547  0.05394123
   0.25000000  0.95245453  0.01748734
   0.25000000  0.54754547  0.08891591
   0.75000000  0.45245453  0.12536981
   0.75000000  0.13291546  0.24327832
   0.25000000  0.86708454  0.25672168
   0.25000000  0.63291546  0.18529311
   0.75000000  0.36708454  0.17184974
   0.25000000  0.19089847  0.27916356
   0.75000000  0.80910153  0.22083644
   0.75000000  0.69089847  0.14940787
   0.25000000  0.30910153  0.20773499
   0.75000000  0.04754547  0.19679838
   0.25000000  0.95245453  0.16034448
   0.25000000  0.54754547  0.23177305
   0.75000000  0.45245453  0.26822695
   0.75000000  0.13291546  0.38613546
   0.25000000  0.86708454  0.39957883
   0.25000000  0.63291546  0.32815026
   0.75000000  0.36708454  0.31470689
   0.25000000  0.19089847  0.42202070
   0.75000000  0.80910153  0.36369359
   0.75000000  0.69089847  0.29226501
   0.25000000  0.30910153  0.35059213
   0.75000000  0.04754547  0.33965552
   0.25000000  0.95245453  0.30320162
   0.25000000  0.54754547  0.37463019
   0.75000000  0.45245453  0.41108409
Direct configuration=     2
   0.75000000  0.03642075  0.12684430
   0.25000000  0.96363519  0.08743305
   0.25000000  0.53641712  0.01599998
   0.75000000  0.46358288  0.05542859
   0.25000000  0.33169937  0.11222949
   0.75000000  0.66830942  0.10205321
   0.75000000  0.83168058  0.03062577
   0.25000000  0.16831942  0.04080280
   0.75000000  0.03642589  0.26970138
   0.25000000  0.96357598  0.23029783
   0.25000000  0.53641712  0.15885712
   0.75000000  0.46358288  0.19828574
   0.25000000  0.33173146  0.25508717
   0.75000000  0.66826839  0.24491242
   0.75000000  0.83168058  0.17348291
   0.25000000  0.16826841  0.18365895
   0.75000000  0.03641712  0.41257145
   0.25000000  0.96358288  0.37314283
   0.25000000  0.53642077  0.30172702
   0.75000000  0.46363526  0.34113848
   0.25000000  0.33312870  0.39798516
   0.75000000  0.66762820  0.38777435
   0.75000000  0.83169938  0.31634186
   0.25000000  0.16830948  0.32651833
   0.75000000  0.13287284  0.10041869
   0.25000000  0.86708755  0.11387032
   0.25000000  0.63204425  0.04237435
   0.75000000  0.36695606  0.02899618
   0.25000000  0.19087912  0.13631399
   0.75000000  0.80909268  0.07796738
   0.75000000  0.69016304  0.00649635
   0.25000000  0.30914392  0.06489352
   0.75000000  0.04760406  0.05394926
   0.25000000  0.95211179  0.01751420
   0.25000000  0.54754315  0.08891060
   0.75000000  0.45244155  0.12536789
   0.75000000  0.13287743  0.24327705
   0.25000000  0.86712392  0.25672339
   0.25000000  0.63287762  0.18529435
   0.75000000  0.36712392  0.17184796
   0.25000000  0.19087394  0.27917169
   0.75000000  0.80912555  0.22082830
   0.75000000  0.69087405  0.14939966
   0.25000000  0.30912554  0.20774306
   0.75000000  0.04756213  0.19679621
   0.25000000  0.95243977  0.16034671
   0.25000000  0.54756178  0.23177531
   0.75000000  0.45243942  0.26822471
   0.75000000  0.13204418  0.38619718
   0.25000000  0.86695637  0.39957523
   0.25000000  0.63287281  0.32815266
   0.75000000  0.36708791  0.31470117
   0.25000000  0.19016300  0.42207501
   0.75000000  0.80914397  0.36367806
   0.75000000  0.69087869  0.29225750
   0.25000000  0.30909261  0.35060398
   0.75000000  0.04754315  0.33966075
   0.25000000  0.95244134  0.30320364
   0.25000000  0.54760447  0.37462222
   0.75000000  0.45211180  0.41105713
Direct configuration=     3
   0.75000000  0.03642584  0.12682630
   0.25000000  0.96370840  0.08743934
   0.25000000  0.53641712  0.01599998
   0.75000000  0.46358288  0.05542859
   0.25000000  0.33172569  0.11222685
   0.75000000  0.66829541  0.10205161
   0.75000000  0.83168058  0.03062577
   0.25000000  0.16831942  0.04080280
   0.75000000  0.03643817  0.26968329
   0.25000000  0.96356631  0.23031481
   0.25000000  0.53641712  0.15885712
   0.75000000  0.46358288  0.19828574
   0.25000000  0.33180267  0.25508528
   0.75000000  0.66819696  0.24491373
   0.75000000  0.83168058  0.17348291
   0.25000000  0.16819701  0.18365755
   0.75000000  0.03641712  0.41257145
   0.25000000  0.96358288  0.37314283
   0.25000000  0.53642588  0.30174487
   0.75000000  0.46370859  0.34113232
   0.25000000  0.33515586  0.39804046
   0.75000000  0.66666060  0.38778236
   0.75000000  0.83172569  0.31634439
   0.25000000  0.16829557  0.32652008
   0.75000000  0.13281317  0.10041521
   0.25000000  0.86709177  0.11387840
   0.25000000  0.63082468  0.04228809
   0.75000000  0.36677622  0.02900120
   0.25000000  0.19085205  0.13632459
   0.75000000  0.80908030  0.07795069
   0.75000000  0.68913354  0.00642024
   0.25000000  0.30920325  0.06491547
   0.75000000  0.04768606  0.05396049
   0.25000000  0.95163201  0.01755181
   0.25000000  0.54753990  0.08890316
   0.75000000  0.45242337  0.12536522
   0.75000000  0.13282420  0.24327528
   0.25000000  0.86717906  0.25672578
   0.25000000  0.63282464  0.18529609
   0.75000000  0.36717905  0.17184547
   0.25000000  0.19083960  0.27918308
   0.75000000  0.80915918  0.22081691
   0.75000000  0.69083987  0.14938817
   0.25000000  0.30915915  0.20775437
   0.75000000  0.04758544  0.19679318
   0.25000000  0.95241912  0.16034982
   0.25000000  0.54758460  0.23177847
   0.75000000  0.45241829  0.26822158
   0.75000000  0.13082450  0.38628357
   0.25000000  0.86677696  0.39957019
   0.25000000  0.63281311  0.32815602
   0.75000000  0.36709263  0.31469317
   0.25000000  0.18913344  0.42215105
   0.75000000  0.80920338  0.36365634
   0.75000000  0.69085099  0.29224698
   0.25000000  0.30908011  0.35062057
   0.75000000  0.04753990  0.33966808
   0.25000000  0.95242288  0.30320647
   0.25000000  0.54768704  0.37461105
   0.75000000  0.45163203  0.41101940
Direct configuration=     4
   0.75000000  0.03641313  0.12682345
   0.25000000  0.96368372  0.08744032
   0.25000000  0.53641712  0.01599998
   0.75000000  0.46358288  0.05542859
   0.25000000  0.33172789  0.11223064
   0.75000000  0.66831180  0.10203982
   0.75000000  0.83168058  0.03062577
   0.25000000  0.16831942  0.04080280
   0.75000000  0.03644880  0.26968112
   0.25000000  0.96355352  0.23031759
   0.25000000  0.53641712  0.15885712
   0.75000000  0.46358288  0.19828574
   0.25000000  0.33180373  0.25508915
   0.75000000  0.66820052  0.24491057
   0.75000000  0.83168058  0.17348291
   0.25000000  0.16818722  0.18365861
   0.75000000  0.03641712  0.41257145
   0.25000000  0.96358288  0.37314283
   0.25000000  0.53641925  0.30174824
   0.75000000  0.46363530  0.34112055
   0.25000000  0.33537694  0.39803421
   0.75000000  0.66683361  0.38777521
   0.75000000  0.83175159  0.31634281
   0.25000000  0.16827978  0.32653183
   0.75000000  0.13281881  0.10040304
   0.25000000  0.86708208  0.11388104
   0.25000000  0.63015546  0.04228098
   0.75000000  0.36642197  0.02902505
   0.25000000  0.19084503  0.13632450
   0.75000000  0.80909177  0.07794624
   0.75000000  0.68859133  0.00638645
   0.25000000  0.30914290  0.06492079
   0.75000000  0.04760026  0.05396992
   0.25000000  0.95126686  0.01756727
   0.25000000  0.54753678  0.08889881
   0.75000000  0.45241362  0.12536170
   0.75000000  0.13284130  0.24326502
   0.25000000  0.86716226  0.25673507
   0.25000000  0.63279830  0.18529656
   0.75000000  0.36721520  0.17184456
   0.25000000  0.19083718  0.27918298
   0.75000000  0.80916383  0.22081655
   0.75000000  0.69084004  0.14938322
   0.25000000  0.30915733  0.20775748
   0.75000000  0.04757405  0.19679260
   0.25000000  0.95241631  0.16035249
   0.25000000  0.54757146  0.23177961
   0.75000000  0.45242866  0.26821989
   0.75000000  0.13021034  0.38629215
   0.25000000  0.86631818  0.39954184
   0.25000000  0.63281859  0.32816738
   0.75000000  0.36711445  0.31469545
   0.25000000  0.18872186  0.42216626
   0.75000000  0.80887011  0.36367936
   0.75000000  0.69083898  0.29224638
   0.25000000  0.30909114  0.35062316
   0.75000000  0.04753913  0.33967100
   0.25000000  0.95240948  0.30321009
   0.25000000  0.54727057  0.37457298
   0.75000000  0.45220947  0.41111355
Direct configuration=     5
   0.75000000  0.03639255  0.12681884
   0.25000000  0.96364377  0.08744189
   0.25000000  0.53641712  0.01599998
   0.75000000  0.46358288  0.05542859
   0.25000000  0.33173146  0.11223679
   0.75000000  0.66833833  0.10202074
   0.75000000  0.83168058  0.03062577
   0.25000000  0.16831942  0.04080280
   0.75000000  0.03646600  0.26967761
   0.25000000  0.96353282  0.23032209
   0.25000000  0.53641712  0.15885712
   0.75000000  0.46358288  0.19828574
   0.25000000  0.33180543  0.25509543
   0.75000000  0.66820630  0.24490547
   0.75000000  0.83168058  0.17348291
   0.25000000  0.16817137  0.18366032
   0.75000000  0.03641712  0.41257145
   0.25000000  0.96358288  0.37314283
   0.25000000  0.53640853  0.30175370
   0.75000000  0.46351667  0.34110150
   0.25000000  0.33573476  0.39802411
   0.75000000  0.66711362  0.38776363
   0.75000000  0.83179350  0.31634025
   0.25000000  0.16825420  0.32655086
   0.75000000  0.13282794  0.10038334
   0.25000000  0.86706638  0.11388530
   0.25000000  0.62907237  0.04226948
   0.75000000  0.36584865  0.02906366
   0.25000000  0.19083366  0.13632437
   0.75000000  0.80911034  0.07793904
   0.75000000  0.68771380  0.00633177
   0.25000000  0.30904523  0.06492940
   0.75000000  0.04746139  0.05398520
   0.25000000  0.95067589  0.01759228
   0.25000000  0.54753173  0.08889175
   0.75000000  0.45239783  0.12535602
   0.75000000  0.13286898  0.24324843
   0.25000000  0.86713507  0.25675010
   0.25000000  0.63275566  0.18529732
   0.75000000  0.36727371  0.17184309
   0.25000000  0.19083326  0.27918282
   0.75000000  0.80917137  0.22081596
   0.75000000  0.69084032  0.14937520
   0.25000000  0.30915439  0.20776250
   0.75000000  0.04755561  0.19679165
   0.25000000  0.95241176  0.16035679
   0.25000000  0.54755020  0.23178145
   0.75000000  0.45244545  0.26821715
   0.75000000  0.12921636  0.38630603
   0.25000000  0.86557569  0.39949595
   0.25000000  0.63282747  0.32818575
   0.75000000  0.36714976  0.31469914
   0.25000000  0.18805574  0.42219089
   0.75000000  0.80833074  0.36371663
   0.75000000  0.69081955  0.29224541
   0.25000000  0.30910899  0.35062735
   0.75000000  0.04753789  0.33967572
   0.25000000  0.95238780  0.30321595
   0.25000000  0.54659653  0.37451135
   0.75000000  0.45314401  0.41126594
Direct configuration=     6
   0.75000000  0.03641587  0.12680534
   0.25000000  0.96363758  0.08743998
   0.25000000  0.53641712  0.01599998
   0.75000000  0.46358288  0.05542859
   0.25000000  0.33169804  0.11223803
   0.75000000  0.66836775  0.10200312
   0.75000000  0.83168058  0.03062577
   0.25000000  0.16831942  0.04080280
   0.75000000  0.03650506  0.26966951
   0.25000000  0.96350383  0.23032925
   0.25000000  0.53641712  0.15885712
   0.75000000  0.46358288  0.19828574
   0.25000000  0.33177632  0.25509851
   0.75000000  0.66823125  0.24490113
   0.75000000  0.83168058  0.17348291
   0.25000000  0.16819785  0.18366408
   0.75000000  0.03641712  0.41257145
   0.25000000  0.96358288  0.37314283
   0.25000000  0.53646555  0.30176476
   0.75000000  0.46354491  0.34110933
   0.25000000  0.33643743  0.39812258
   0.75000000  0.66723255  0.38773820
   0.75000000  0.83175507  0.31634012
   0.25000000  0.16826505  0.32656613
   0.75000000  0.13280916  0.10037621
   0.25000000  0.86703423  0.11388737
   0.25000000  0.62874919  0.04232571
   0.75000000  0.36521269  0.02910501
   0.25000000  0.19081342  0.13632115
   0.75000000  0.80910073  0.07793350
   0.75000000  0.68744736  0.00632851
   0.25000000  0.30880150  0.06492219
   0.75000000  0.04712627  0.05398600
   0.25000000  0.95030100  0.01757553
   0.25000000  0.54750288  0.08888243
   0.75000000  0.45241573  0.12535523
   0.75000000  0.13287968  0.24324139
   0.25000000  0.86711746  0.25675759
   0.25000000  0.63274876  0.18529842
   0.75000000  0.36728733  0.17184248
   0.25000000  0.19084277  0.27918076
   0.75000000  0.80915543  0.22081812
   0.75000000  0.69086365  0.14937584
   0.25000000  0.30913185  0.20776120
   0.75000000  0.04752051  0.19679237
   0.25000000  0.95242961  0.16035953
   0.25000000  0.54751522  0.23178131
   0.75000000  0.45248784  0.26821817
   0.75000000  0.12898855  0.38624512
   0.25000000  0.86480819  0.39945105
   0.25000000  0.63282599  0.32819215
   0.75000000  0.36705234  0.31468085
   0.25000000  0.18787017  0.42217006
   0.75000000  0.80806100  0.36371151
   0.75000000  0.69080209  0.29225117
   0.25000000  0.30904712  0.35062750
   0.75000000  0.04746557  0.33968721
   0.25000000  0.95240896  0.30321604
   0.25000000  0.54606993  0.37450820
   0.75000000  0.45330459  0.41134604
Direct configuration=     7
   0.75000000  0.03645294  0.12678389
   0.25000000  0.96362775  0.08743694
   0.25000000  0.53641712  0.01599998
   0.75000000  0.46358288  0.05542859
   0.25000000  0.33164492  0.11224001
   0.75000000  0.66841450  0.10197512
   0.75000000  0.83168058  0.03062577
   0.25000000  0.16831942  0.04080280
   0.75000000  0.03656712  0.26965665
   0.25000000  0.96345777  0.23034062
   0.25000000  0.53641712  0.15885712
   0.75000000  0.46358288  0.19828574
   0.25000000  0.33173006  0.25510342
   0.75000000  0.66827091  0.24489425
   0.75000000  0.83168058  0.17348291
   0.25000000  0.16823993  0.18367006
   0.75000000  0.03641712  0.41257145
   0.25000000  0.96358288  0.37314283
   0.25000000  0.53655617  0.30178234
   0.75000000  0.46358978  0.34112177
   0.25000000  0.33755403  0.39827906
   0.75000000  0.66742153  0.38769781
   0.75000000  0.83169401  0.31633993
   0.25000000  0.16828228  0.32659040
   0.75000000  0.13277933  0.10036489
   0.25000000  0.86698315  0.11389064
   0.25000000  0.62823563  0.04241506
   0.75000000  0.36420210  0.02917072
   0.25000000  0.19078126  0.13631604
   0.75000000  0.80908545  0.07792469
   0.75000000  0.68702397  0.00632334
   0.25000000  0.30841421  0.06491073
   0.75000000  0.04659375  0.05398728
   0.25000000  0.94970529  0.01754891
   0.25000000  0.54745702  0.08886762
   0.75000000  0.45244418  0.12535398
   0.75000000  0.13289668  0.24323022
   0.25000000  0.86708948  0.25676949
   0.25000000  0.63273781  0.18530016
   0.75000000  0.36730898  0.17184151
   0.25000000  0.19085787  0.27917750
   0.75000000  0.80913010  0.22082156
   0.75000000  0.69090073  0.14937685
   0.25000000  0.30909602  0.20775915
   0.75000000  0.04746475  0.19679351
   0.25000000  0.95245796  0.16036387
   0.25000000  0.54745964  0.23178108
   0.75000000  0.45255521  0.26821978
   0.75000000  0.12862654  0.38614834
   0.25000000  0.86358857  0.39937971
   0.25000000  0.63282366  0.32820233
   0.75000000  0.36689753  0.31465179
   0.25000000  0.18757530  0.42213698
   0.75000000  0.80763237  0.36370337
   0.75000000  0.69077434  0.29226033
   0.25000000  0.30894881  0.35062774
   0.75000000  0.04735064  0.33970548
   0.25000000  0.95244259  0.30321618
   0.25000000  0.54523313  0.37450318
   0.75000000  0.45355977  0.41147333
Direct configuration=     8
   0.75000000  0.03640193  0.12677630
   0.25000000  0.96362272  0.08743390
   0.25000000  0.53641712  0.01599998
   0.75000000  0.46358288  0.05542859
   0.25000000  0.33168685  0.11224241
   0.75000000  0.66839123  0.10196414
   0.75000000  0.83168058  0.03062577
   0.25000000  0.16831942  0.04080280
   0.75000000  0.03659518  0.26965246
   0.25000000  0.96341834  0.23034808
   0.25000000  0.53641712  0.15885712
   0.75000000  0.46358288  0.19828574
   0.25000000  0.33180533  0.25510712
   0.75000000  0.66821288  0.24489451
   0.75000000  0.83168058  0.17348291
   0.25000000  0.16821275  0.18367276
   0.75000000  0.03641712  0.41257145
   0.25000000  0.96358288  0.37314283
   0.25000000  0.53645610  0.30178811
   0.75000000  0.46343612  0.34110233
   0.25000000  0.33827130  0.39831671
   0.75000000  0.66733673  0.38761196
   0.75000000  0.83175799  0.31633746
   0.25000000  0.16825038  0.32659491
   0.75000000  0.13279511  0.10034980
   0.25000000  0.86693537  0.11388200
   0.25000000  0.62823511  0.04243914
   0.75000000  0.36372118  0.02919176
   0.25000000  0.19076147  0.13631077
   0.75000000  0.80909247  0.07790969
   0.75000000  0.68697516  0.00634632
   0.25000000  0.30807136  0.06490785
   0.75000000  0.04606050  0.05395125
   0.25000000  0.94937349  0.01748148
   0.25000000  0.54737939  0.08884972
   0.75000000  0.45242179  0.12534974
   0.75000000  0.13291319  0.24322345
   0.25000000  0.86706871  0.25677273
   0.25000000  0.63273182  0.18530282
   0.75000000  0.36728316  0.17184080
   0.25000000  0.19086234  0.27917908
   0.75000000  0.80913039  0.22081758
   0.75000000  0.69090482  0.14938119
   0.25000000  0.30909983  0.20776183
   0.75000000  0.04745855  0.19679327
   0.25000000  0.95247770  0.16036605
   0.25000000  0.54744779  0.23178112
   0.75000000  0.45255254  0.26821725
   0.75000000  0.12856315  0.38613159
   0.25000000  0.86308907  0.39936260
   0.25000000  0.63284099  0.32821986
   0.75000000  0.36688511  0.31466911
   0.25000000  0.18725647  0.42217859
   0.75000000  0.80751498  0.36364450
   0.75000000  0.69081439  0.29226373
   0.25000000  0.30895606  0.35063655
   0.75000000  0.04722945  0.33972455
   0.25000000  0.95238975  0.30321965
   0.25000000  0.54486813  0.37457947
   0.75000000  0.45368717  0.41162203
Direct configuration=     9
   0.75000000  0.03635598  0.12676946
   0.25000000  0.96361818  0.08743117
   0.25000000  0.53641712  0.01599998
   0.75000000  0.46358288  0.05542859
   0.25000000  0.33172463  0.11224456
   0.75000000  0.66837026  0.10195425
   0.75000000  0.83168058  0.03062577
   0.25000000  0.16831942  0.04080280
   0.75000000  0.03662047  0.26964868
   0.25000000  0.96338280  0.23035481
   0.25000000  0.53641712  0.15885712
   0.75000000  0.46358288  0.19828574
   0.25000000  0.33187317  0.25511046
   0.75000000  0.66816059  0.24489475
   0.75000000  0.83168058  0.17348291
   0.25000000  0.16818826  0.18367520
   0.75000000  0.03641712  0.41257145
   0.25000000  0.96358288  0.37314283
   0.25000000  0.53636592  0.30179331
   0.75000000  0.46329766  0.34108480
   0.25000000  0.33891763  0.39835063
   0.75000000  0.66726032  0.38753460
   0.75000000  0.83181563  0.31633523
   0.25000000  0.16822164  0.32659896
   0.75000000  0.13280933  0.10033619
   0.25000000  0.86689232  0.11387421
   0.25000000  0.62823465  0.04246084
   0.75000000  0.36328783  0.02921072
   0.25000000  0.19074365  0.13630603
   0.75000000  0.80909879  0.07789618
   0.75000000  0.68693119  0.00636704
   0.25000000  0.30776241  0.06490526
   0.75000000  0.04558000  0.05391878
   0.25000000  0.94907450  0.01742071
   0.25000000  0.54730944  0.08883360
   0.75000000  0.45240162  0.12534592
   0.75000000  0.13292806  0.24321735
   0.25000000  0.86705000  0.25677565
   0.25000000  0.63272643  0.18530522
   0.75000000  0.36725989  0.17184016
   0.25000000  0.19086636  0.27918050
   0.75000000  0.80913065  0.22081400
   0.75000000  0.69090851  0.14938509
   0.25000000  0.30910325  0.20776424
   0.75000000  0.04745296  0.19679304
   0.25000000  0.95249548  0.16036801
   0.25000000  0.54743711  0.23178114
   0.75000000  0.45255013  0.26821497
   0.75000000  0.12850603  0.38611650
   0.25000000  0.86263897  0.39934718
   0.25000000  0.63285662  0.32823565
   0.75000000  0.36687391  0.31468472
   0.25000000  0.18696918  0.42221609
   0.75000000  0.80740920  0.36359145
   0.75000000  0.69085048  0.29226680
   0.25000000  0.30896259  0.35064449
   0.75000000  0.04712024  0.33974174
   0.25000000  0.95234213  0.30322278
   0.25000000  0.54453923  0.37464821
   0.75000000  0.45380196  0.41175602
Direct configuration=    10
   0.75000000  0.03634917  0.12675543
   0.25000000  0.96364335  0.08741759
   0.25000000  0.53641712  0.01599998
   0.75000000  0.46358288  0.05542859
   0.25000000  0.33173639  0.11223731
   0.75000000  0.66830658  0.10193223
   0.75000000  0.83168058  0.03062577
   0.25000000  0.16831942  0.04080280
   0.75000000  0.03665330  0.26964353
   0.25000000  0.96335933  0.23035490
   0.25000000  0.53641712  0.15885712
   0.75000000  0.46358288  0.19828574
   0.25000000  0.33189875  0.25510639
   0.75000000  0.66813384  0.24489337
   0.75000000  0.83168058  0.17348291
   0.25000000  0.16816084  0.18367637
   0.75000000  0.03641712  0.41257145
   0.25000000  0.96358288  0.37314283
   0.25000000  0.53645193  0.30180983
   0.75000000  0.46327986  0.34109499
   0.25000000  0.33952376  0.39842580
   0.75000000  0.66768057  0.38751152
   0.75000000  0.83181751  0.31634786
   0.25000000  0.16806050  0.32662216
   0.75000000  0.13279645  0.10032992
   0.25000000  0.86681213  0.11386351
   0.25000000  0.62822803  0.04244765
   0.75000000  0.36313716  0.02921682
   0.25000000  0.19067968  0.13630059
   0.75000000  0.80906861  0.07788661
   0.75000000  0.68681717  0.00637827
   0.25000000  0.30755712  0.06491518
   0.75000000  0.04509159  0.05385864
   0.25000000  0.94866862  0.01734673
   0.25000000  0.54724420  0.08881856
   0.75000000  0.45241504  0.12534641
   0.75000000  0.13294588  0.24321677
   0.25000000  0.86701462  0.25678029
   0.25000000  0.63271678  0.18530545
   0.75000000  0.36724139  0.17184123
   0.25000000  0.19088017  0.27918279
   0.75000000  0.80910109  0.22081451
   0.75000000  0.69089696  0.14938724
   0.25000000  0.30911620  0.20776736
   0.75000000  0.04744723  0.19679502
   0.25000000  0.95250977  0.16036884
   0.25000000  0.54741341  0.23178009
   0.75000000  0.45258927  0.26821947
   0.75000000  0.12848994  0.38613300
   0.25000000  0.86245255  0.39932211
   0.25000000  0.63280738  0.32823409
   0.75000000  0.36673439  0.31468143
   0.25000000  0.18669477  0.42225138
   0.75000000  0.80738177  0.36350027
   0.75000000  0.69076350  0.29226930
   0.25000000  0.30888936  0.35064673
   0.75000000  0.04710123  0.33974655
   0.25000000  0.95234700  0.30321899
   0.25000000  0.54379668  0.37469102
   0.75000000  0.45376371  0.41189411
Direct configuration=    11
   0.75000000  0.03634065  0.12673788
   0.25000000  0.96367482  0.08740062
   0.25000000  0.53641712  0.01599998
   0.75000000  0.46358288  0.05542859
   0.25000000  0.33175110  0.11222825
   0.75000000  0.66822693  0.10190469
   0.75000000  0.83168058  0.03062577
   0.25000000  0.16831942  0.04080280
   0.75000000  0.03669436  0.26963708
   0.25000000  0.96332997  0.23035502
   0.25000000  0.53641712  0.15885712
   0.75000000  0.46358288  0.19828574
   0.25000000  0.33193075  0.25510129
   0.75000000  0.66810039  0.24489164
   0.75000000  0.83168058  0.17348291
   0.25000000  0.16812656  0.18367784
   0.75000000  0.03641712  0.41257145
   0.25000000  0.96358288  0.37314283
   0.25000000  0.53655950  0.30183049
   0.75000000  0.46325760  0.34110772
   0.25000000  0.34028185  0.39851982
   0.75000000  0.66820619  0.38748265
   0.75000000  0.83181987  0.31636365
   0.25000000  0.16785896  0.32665117
   0.75000000  0.13278033  0.10032207
   0.25000000  0.86671184  0.11385013
   0.25000000  0.62821974  0.04243114
   0.75000000  0.36294871  0.02922446
   0.25000000  0.19059968  0.13629379
   0.75000000  0.80903086  0.07787465
   0.75000000  0.68667457  0.00639231
   0.25000000  0.30730036  0.06492759
   0.75000000  0.04448074  0.05378343
   0.25000000  0.94816099  0.01725421
   0.25000000  0.54716260  0.08879975
   0.75000000  0.45243182  0.12534701
   0.75000000  0.13296817  0.24321604
   0.25000000  0.86697038  0.25678610
   0.25000000  0.63270471  0.18530574
   0.75000000  0.36721824  0.17184257
   0.25000000  0.19089743  0.27918564
   0.75000000  0.80906411  0.22081515
   0.75000000  0.69088250  0.14938993
   0.25000000  0.30913238  0.20777126
   0.75000000  0.04744006  0.19679749
   0.25000000  0.95252764  0.16036988
   0.25000000  0.54738376  0.23177877
   0.75000000  0.45263821  0.26822509
   0.75000000  0.12846981  0.38615364
   0.25000000  0.86221940  0.39929075
   0.25000000  0.63274581  0.32823214
   0.75000000  0.36655989  0.31467732
   0.25000000  0.18635157  0.42229551
   0.75000000  0.80734745  0.36338623
   0.75000000  0.69065471  0.29227241
   0.25000000  0.30879776  0.35064952
   0.75000000  0.04707747  0.33975257
   0.25000000  0.95235310  0.30321424
   0.25000000  0.54286797  0.37474456
   0.75000000  0.45371588  0.41206681
Direct configuration=    12
   0.75000000  0.03628150  0.12673260
   0.25000000  0.96360735  0.08739271
   0.25000000  0.53641712  0.01599998
   0.75000000  0.46358288  0.05542859
   0.25000000  0.33175320  0.11222911
   0.75000000  0.66820675  0.10189154
   0.75000000  0.83168058  0.03062577
   0.25000000  0.16831942  0.04080280
   0.75000000  0.03671800  0.26964216
   0.25000000  0.96328255  0.23035694
   0.25000000  0.53641712  0.15885712
   0.75000000  0.46358288  0.19828574
   0.25000000  0.33194365  0.25510548
   0.75000000  0.66811378  0.24489637
   0.75000000  0.83168058  0.17348291
   0.25000000  0.16814460  0.18368056
   0.75000000  0.03641712  0.41257145
   0.25000000  0.96358288  0.37314283
   0.25000000  0.53645025  0.30182158
   0.75000000  0.46312795  0.34111294
   0.25000000  0.34047135  0.39861306
   0.75000000  0.66866873  0.38743989
   0.75000000  0.83180159  0.31635489
   0.25000000  0.16791408  0.32663938
   0.75000000  0.13277361  0.10031161
   0.25000000  0.86667827  0.11382369
   0.25000000  0.62811638  0.04242555
   0.75000000  0.36314567  0.02922845
   0.25000000  0.19056498  0.13628001
   0.75000000  0.80903435  0.07786300
   0.75000000  0.68644191  0.00637049
   0.25000000  0.30735754  0.06494049
   0.75000000  0.04426579  0.05372773
   0.25000000  0.94772039  0.01721946
   0.25000000  0.54706366  0.08878343
   0.75000000  0.45240976  0.12534187
   0.75000000  0.13298732  0.24321342
   0.25000000  0.86695487  0.25678108
   0.25000000  0.63270385  0.18530245
   0.75000000  0.36722041  0.17184428
   0.25000000  0.19093463  0.27917932
   0.75000000  0.80904275  0.22081578
   0.75000000  0.69087273  0.14938658
   0.25000000  0.30912688  0.20776961
   0.75000000  0.04742142  0.19680243
   0.25000000  0.95252064  0.16036930
   0.25000000  0.54734693  0.23177489
   0.75000000  0.45264186  0.26822517
   0.75000000  0.12847923  0.38616136
   0.25000000  0.86213966  0.39925743
   0.25000000  0.63279398  0.32825053
   0.75000000  0.36646358  0.31468848
   0.25000000  0.18602336  0.42232124
   0.75000000  0.80720206  0.36336849
   0.75000000  0.69067962  0.29228896
   0.25000000  0.30875435  0.35065991
   0.75000000  0.04693213  0.33977090
   0.25000000  0.95228130  0.30322117
   0.25000000  0.54251218  0.37479531
   0.75000000  0.45376254  0.41216254
Direct configuration=    13
   0.75000000  0.03625269  0.12673002
   0.25000000  0.96357449  0.08738885
   0.25000000  0.53641712  0.01599998
   0.75000000  0.46358288  0.05542859
   0.25000000  0.33175422  0.11222953
   0.75000000  0.66819693  0.10188513
   0.75000000  0.83168058  0.03062577
   0.25000000  0.16831942  0.04080280
   0.75000000  0.03672951  0.26964464
   0.25000000  0.96325946  0.23035787
   0.25000000  0.53641712  0.15885712
   0.75000000  0.46358288  0.19828574
   0.25000000  0.33194993  0.25510752
   0.75000000  0.66812030  0.24489867
   0.75000000  0.83168058  0.17348291
   0.25000000  0.16815340  0.18368188
   0.75000000  0.03641712  0.41257145
   0.25000000  0.96358288  0.37314283
   0.25000000  0.53639703  0.30181724
   0.75000000  0.46306480  0.34111549
   0.25000000  0.34056365  0.39865847
   0.75000000  0.66889401  0.38741906
   0.75000000  0.83179269  0.31635063
   0.25000000  0.16794093  0.32663363
   0.75000000  0.13277033  0.10030652
   0.25000000  0.86666193  0.11381081
   0.25000000  0.62806603  0.04242282
   0.75000000  0.36324160  0.02923040
   0.25000000  0.19054807  0.13627330
   0.75000000  0.80903606  0.07785732
   0.75000000  0.68632860  0.00635986
   0.25000000  0.30738538  0.06494678
   0.75000000  0.04416111  0.05370060
   0.25000000  0.94750580  0.01720254
   0.25000000  0.54701546  0.08877549
   0.75000000  0.45239902  0.12533937
   0.75000000  0.13299665  0.24321214
   0.25000000  0.86694732  0.25677864
   0.25000000  0.63270344  0.18530085
   0.75000000  0.36722147  0.17184511
   0.25000000  0.19095274  0.27917625
   0.75000000  0.80903234  0.22081609
   0.75000000  0.69086797  0.14938495
   0.25000000  0.30912419  0.20776880
   0.75000000  0.04741234  0.19680484
   0.25000000  0.95251723  0.16036902
   0.25000000  0.54732900  0.23177300
   0.75000000  0.45264363  0.26822521
   0.75000000  0.12848381  0.38616512
   0.25000000  0.86210083  0.39924121
   0.25000000  0.63281744  0.32825948
   0.75000000  0.36641668  0.31469392
   0.25000000  0.18586350  0.42233377
   0.75000000  0.80713124  0.36335985