  30  30   1   0
  0.6327519E+02  0.4192584E-09  0.3117458E-08  0.1677034E-08  0.5000000E-15
  1.000000000000000E-004
  CAR 
 Tetradymite Slab                        
     11.00706701    -26.31287189  301     -0.56116341      1.00000000
    -26.313  0.0000E+00  0.0000E+00
    -26.188  0.0000E+00  0.0000E+00
    -26.064  0.0000E+00  0.0000E+00
    -25.940 -0.3603E-28 -0.4482E-29
    -25.815 -0.5867E-24 -0.7299E-25
    -25.691 -0.4397E-20 -0.5470E-21
    -25.566 -0.1516E-16 -0.1887E-17
    -25.442 -0.2336E-13 -0.2907E-14
    -25.318 -0.1688E-10 -0.2102E-11
    -25.193 -0.5593E-08 -0.6978E-09
    -25.069 -0.8456E-06 -0.1059E-06
    -24.944 -0.5793E-04 -0.7312E-05
    -24.820 -0.1772E-02 -0.2277E-03
    -24.696 -0.2335E-01 -0.3132E-02
    -24.571 -0.1179E+00 -0.1780E-01
    -24.447 -0.7220E-01 -0.2678E-01
    -24.322  0.1145E+01  0.1157E+00
    -24.198  0.4039E+01  0.6182E+00
    -24.074  0.6086E+01  0.1375E+01
    -23.949  0.4210E+01  0.1899E+01
    -23.825  0.1367E+01  0.2069E+01
    -23.700  0.1399E+01  0.2243E+01
    -23.576  0.3314E+01  0.2655E+01
    -23.452  0.6673E+01  0.3486E+01
    -23.327  0.9767E+01  0.4701E+01
    -23.203  0.8044E+01  0.5701E+01
    -23.078  0.2796E+01  0.6049E+01
    -22.954 -0.8286E-01  0.6039E+01
    -22.830 -0.2568E+00  0.6007E+01
    -22.705 -0.5080E-01  0.6000E+01
    -22.581 -0.3782E-02  0.6000E+01
    -22.456 -0.1216E-03  0.6000E+01
    -22.332 -0.1756E-05  0.6000E+01
    -22.208 -0.1156E-07  0.6000E+01
    -22.083 -0.3492E-10  0.6000E+01
    -21.959 -0.4855E-13  0.6000E+01
    -21.834  0.0000E+00  0.6000E+01
    -21.710  0.0000E+00  0.6000E+01
    -21.586  0.0000E+00  0.6000E+01
    -21.461  0.0000E+00  0.6000E+01
    -21.337  0.0000E+00  0.6000E+01
    -21.212  0.0000E+00  0.6000E+01
    -21.088  0.0000E+00  0.6000E+01
    -20.964  0.0000E+00  0.6000E+01
    -20.839  0.0000E+00  0.6000E+01
    -20.715  0.0000E+00  0.6000E+01
    -20.590  0.0000E+00  0.6000E+01
    -20.466  0.0000E+00  0.6000E+01
    -20.342  0.0000E+00  0.6000E+01
    -20.217  0.0000E+00  0.6000E+01
    -20.093  0.0000E+00  0.6000E+01
    -19.968  0.0000E+00  0.6000E+01
    -19.844  0.0000E+00  0.6000E+01
    -19.720  0.0000E+00  0.6000E+01
    -19.595  0.0000E+00  0.6000E+01
    -19.471  0.0000E+00  0.6000E+01
    -19.346  0.0000E+00  0.6000E+01
    -19.222  0.0000E+00  0.6000E+01
    -19.098  0.0000E+00  0.6000E+01
    -18.973  0.0000E+00  0.6000E+01
    -18.849  0.0000E+00  0.6000E+01
    -18.724  0.0000E+00  0.6000E+01
    -18.600  0.0000E+00  0.6000E+01
    -18.476  0.0000E+00  0.6000E+01
    -18.351  0.0000E+00  0.6000E+01
    -18.227  0.0000E+00  0.6000E+01
    -18.102  0.0000E+00  0.6000E+01
    -17.978  0.0000E+00  0.6000E+01
    -17.854  0.0000E+00  0.6000E+01
    -17.729  0.0000E+00  0.6000E+01
    -17.605  0.0000E+00  0.6000E+01
    -17.480  0.0000E+00  0.6000E+01
    -17.356  0.0000E+00  0.6000E+01
    -17.232  0.0000E+00  0.6000E+01
    -17.107  0.0000E+00  0.6000E+01
    -16.983  0.0000E+00  0.6000E+01
    -16.858  0.0000E+00  0.6000E+01
    -16.734  0.0000E+00  0.6000E+01
    -16.610  0.0000E+00  0.6000E+01
    -16.485 -0.1903E-30  0.6000E+01
    -16.361 -0.3715E-26  0.6000E+01
    -16.236 -0.3338E-22  0.6000E+01
    -16.112 -0.1380E-18  0.6000E+01
    -15.988 -0.2553E-15  0.6000E+01
    -15.863 -0.2217E-12  0.6000E+01
    -15.739 -0.8827E-10  0.6000E+01
    -15.614 -0.1602E-07  0.6000E+01
    -15.490 -0.1314E-05  0.6000E+01
    -15.366 -0.4773E-04  0.6000E+01
    -15.241 -0.7352E-03  0.6000E+01
    -15.117 -0.4183E-02  0.5999E+01
    -14.992 -0.2548E-02  0.5999E+01
    -14.868  0.4017E-01  0.6004E+01
    -14.744  0.1143E+00  0.6018E+01
    -14.619  0.1696E+00  0.6039E+01
    -14.495  0.2685E+00  0.6073E+01
    -14.370  0.4032E+00  0.6123E+01
    -14.246  0.4207E+00  0.6175E+01
    -14.122  0.3278E+00  0.6216E+01
    -13.997  0.2522E+00  0.6247E+01
    -13.873  0.3382E+00  0.6289E+01
    -13.748  0.5740E+00  0.6361E+01
    -13.624  0.7270E+00  0.6451E+01
    -13.500  0.7829E+00  0.6549E+01
    -13.375  0.7842E+00  0.6646E+01
    -13.251  0.7091E+00  0.6735E+01
    -13.126  0.6074E+00  0.6810E+01
    -13.002  0.5515E+00  0.6879E+01
    -12.878  0.7785E+00  0.6976E+01
    -12.753  0.1159E+01  0.7120E+01
    -12.629  0.1208E+01  0.7270E+01
    -12.504  0.9792E+00  0.7392E+01
    -12.380  0.7830E+00  0.7489E+01
    -12.256  0.5723E+00  0.7560E+01
    -12.131  0.4944E+00  0.7622E+01
    -12.007  0.5492E+00  0.7690E+01
    -11.882  0.4245E+00  0.7743E+01
    -11.758  0.2140E+00  0.7770E+01
    -11.634  0.1483E+00  0.7788E+01
    -11.509  0.1392E+00  0.7805E+01
    -11.385  0.1740E+00  0.7827E+01
    -11.260  0.3074E+00  0.7865E+01
    -11.136  0.3630E+00  0.7910E+01
    -11.012  0.3567E+00  0.7955E+01
    -10.887  0.5344E+00  0.8021E+01
    -10.763  0.7548E+00  0.8115E+01
    -10.638  0.7646E+00  0.8210E+01
    -10.514  0.6896E+00  0.8296E+01
    -10.390  0.6608E+00  0.8378E+01
    -10.265  0.5406E+00  0.8446E+01
    -10.141  0.4277E+00  0.8499E+01
    -10.016  0.6213E+00  0.8576E+01
     -9.892  0.9039E+00  0.8689E+01
     -9.768  0.8220E+00  0.8791E+01
     -9.643  0.5444E+00  0.8858E+01
     -9.519  0.3550E+00  0.8903E+01
     -9.394  0.2263E+00  0.8931E+01
     -9.270  0.1760E+00  0.8953E+01
     -9.146  0.1888E+00  0.8976E+01
     -9.021  0.1490E+00  0.8995E+01
     -8.897  0.5066E-01  0.9001E+01
     -8.773 -0.2393E-02  0.9001E+01
     -8.648 -0.4865E-02  0.9000E+01
     -8.524 -0.9245E-03  0.9000E+01
     -8.399 -0.6703E-04  0.9000E+01
     -8.275 -0.2111E-05  0.9000E+01
     -8.151 -0.2990E-07  0.9000E+01
     -8.026 -0.1926E-09  0.9000E+01
     -7.902 -0.5669E-12  0.9000E+01
     -7.777 -0.7660E-15  0.9000E+01
     -7.653  0.0000E+00  0.9000E+01
     -7.529  0.0000E+00  0.9000E+01
     -7.404  0.0000E+00  0.9000E+01
     -7.280  0.0000E+00  0.9000E+01
     -7.155  0.0000E+00  0.9000E+01
     -7.031  0.0000E+00  0.9000E+01
     -6.907 -0.1909E-28  0.9000E+01
     -6.782 -0.2708E-24  0.9000E+01
     -6.658 -0.1761E-20  0.9000E+01
     -6.533 -0.5249E-17  0.9000E+01
     -6.409 -0.6931E-14  0.9000E+01
     -6.285 -0.4290E-11  0.9000E+01
     -6.160 -0.1208E-08  0.9000E+01
     -6.036 -0.1541E-06  0.9000E+01
     -5.911 -0.8842E-05  0.9000E+01
     -5.787 -0.2245E-03  0.9000E+01
     -5.663 -0.2414E-02  0.9000E+01
     -5.538 -0.9250E-02  0.8999E+01
     -5.414  0.3897E-02  0.8999E+01
     -5.289  0.1020E+00  0.9012E+01
     -5.165  0.2677E+00  0.9045E+01
     -5.041  0.4355E+00  0.9099E+01
     -4.916  0.5822E+00  0.9172E+01
     -4.792  0.6240E+00  0.9249E+01
     -4.667  0.7631E+00  0.9344E+01
     -4.543  0.1024E+01  0.9471E+01
     -4.419  0.1023E+01  0.9599E+01
     -4.294  0.9279E+00  0.9714E+01
     -4.170  0.9861E+00  0.9837E+01
     -4.045  0.9247E+00  0.9952E+01
     -3.921  0.8929E+00  0.1006E+02
     -3.797  0.1100E+01  0.1020E+02
     -3.672  0.1304E+01  0.1036E+02
     -3.548  0.1276E+01  0.1052E+02
     -3.423  0.1262E+01  0.1068E+02
     -3.299  0.1385E+01  0.1085E+02
     -3.175  0.1384E+01  0.1102E+02
     -3.050  0.1321E+01  0.1119E+02
     -2.926  0.1324E+01  0.1135E+02
     -2.801  0.1293E+01  0.1151E+02
     -2.677  0.1374E+01  0.1168E+02
     -2.553  0.1603E+01  0.1188E+02
     -2.428  0.1640E+01  0.1209E+02
     -2.304  0.1312E+01  0.1225E+02
     -2.179  0.9882E+00  0.1237E+02
     -2.055  0.9464E+00  0.1249E+02
     -1.931  0.9449E+00  0.1261E+02
     -1.806  0.1009E+01  0.1273E+02
     -1.682  0.1161E+01  0.1288E+02
     -1.557  0.1145E+01  0.1302E+02
     -1.433  0.1197E+01  0.1317E+02
     -1.309  0.1452E+01  0.1335E+02
     -1.184  0.1772E+01  0.1357E+02
     -1.060  0.1993E+01  0.1382E+02
     -0.935  0.1801E+01  0.1404E+02
     -0.811  0.1288E+01  0.1420E+02
     -0.687  0.9603E+00  0.1432E+02
     -0.562  0.6244E+00  0.1440E+02
     -0.438  0.2693E+00  0.1443E+02
     -0.313  0.2322E+00  0.1446E+02
     -0.189  0.3674E+00  0.1451E+02
     -0.065  0.4782E+00  0.1457E+02
      0.060  0.6618E+00  0.1465E+02
      0.184  0.7368E+00  0.1474E+02
      0.309  0.5472E+00  0.1481E+02
      0.433  0.3782E+00  0.1486E+02
      0.557  0.4204E+00  0.1491E+02
      0.682  0.4635E+00  0.1497E+02
      0.806  0.5708E+00  0.1504E+02
      0.931  0.7702E+00  0.1513E+02
      1.055  0.8027E+00  0.1523E+02
      1.179  0.6924E+00  0.1532E+02
      1.304  0.7303E+00  0.1541E+02
      1.428  0.9779E+00  0.1553E+02
      1.553  0.1325E+01  0.1570E+02
      1.677  0.1597E+01  0.1589E+02
      1.801  0.1638E+01  0.1610E+02
      1.926  0.1457E+01  0.1628E+02
      2.050  0.1167E+01  0.1643E+02
      2.175  0.8983E+00  0.1654E+02
      2.299  0.8144E+00  0.1664E+02
      2.423  0.8808E+00  0.1675E+02
      2.548  0.1099E+01  0.1688E+02
      2.672  0.1199E+01  0.1703E+02
      2.797  0.1052E+01  0.1716E+02
      2.921  0.1116E+01  0.1730E+02
      3.045  0.1187E+01  0.1745E+02
      3.170  0.1135E+01  0.1759E+02
      3.294  0.1002E+01  0.1772E+02
      3.419  0.6651E+00  0.1780E+02
      3.543  0.4875E+00  0.1786E+02
      3.667  0.6113E+00  0.1794E+02
      3.792  0.7219E+00  0.1803E+02
      3.916  0.6392E+00  0.1811E+02
      4.041  0.5095E+00  0.1817E+02
      4.165  0.4468E+00  0.1822E+02
      4.289  0.4770E+00  0.1828E+02
      4.414  0.5855E+00  0.1836E+02
      4.538  0.7000E+00  0.1844E+02
      4.663  0.7634E+00  0.1854E+02
      4.787  0.8571E+00  0.1865E+02
      4.911  0.1024E+01  0.1877E+02
      5.036  0.1081E+01  0.1891E+02
      5.160  0.1044E+01  0.1904E+02
      5.285  0.1146E+01  0.1918E+02
      5.409  0.1366E+01  0.1935E+02
      5.533  0.1495E+01  0.1954E+02
      5.658  0.1571E+01  0.1973E+02
      5.782  0.1547E+01  0.1992E+02
      5.907  0.1515E+01  0.2011E+02
      6.031  0.1645E+01  0.2032E+02
      6.155  0.1807E+01  0.2054E+02
      6.280  0.1840E+01  0.2077E+02
      6.404  0.1720E+01  0.2098E+02
      6.529  0.1580E+01  0.2118E+02
      6.653  0.1604E+01  0.2138E+02
      6.777  0.1737E+01  0.2160E+02
      6.902  0.1773E+01  0.2182E+02
      7.026  0.1740E+01  0.2203E+02
      7.151  0.1772E+01  0.2225E+02
      7.275  0.1899E+01  0.2249E+02
      7.399  0.2007E+01  0.2274E+02
      7.524  0.2004E+01  0.2299E+02
      7.648  0.1910E+01  0.2323E+02
      7.773  0.1892E+01  0.2346E+02
      7.897  0.1972E+01  0.2371E+02
      8.021  0.2030E+01  0.2396E+02
      8.146  0.1991E+01  0.2421E+02
      8.270  0.1923E+01  0.2445E+02
      8.395  0.1898E+01  0.2468E+02
      8.519  0.1925E+01  0.2492E+02
      8.643  0.2088E+01  0.2518E+02
      8.768  0.1941E+01  0.2542E+02
      8.892  0.1155E+01  0.2557E+02
      9.017  0.3190E+00  0.2561E+02
      9.141 -0.1556E-01  0.2560E+02
      9.265 -0.3129E-01  0.2560E+02
      9.390 -0.7477E-02  0.2560E+02
      9.514 -0.7987E-03  0.2560E+02
      9.639 -0.4210E-04  0.2560E+02
      9.763 -0.1094E-05  0.2560E+02
      9.887 -0.1379E-07  0.2560E+02
     10.012 -0.8312E-10  0.2560E+02
     10.136 -0.2373E-12  0.2560E+02
     10.261 -0.3223E-15  0.2560E+02
     10.385  0.0000E+00  0.2560E+02
     10.509  0.0000E+00  0.2560E+02
     10.634  0.0000E+00  0.2560E+02
     10.758  0.0000E+00  0.2560E+02
     10.883  0.0000E+00  0.2560E+02
     11.007  0.0000E+00  0.2560E+02
     11.00706701    -26.31287189  301     -0.56116341      1.00000000
    -26.313  0.0000E+00  0.0000E+00  0.0000E+00  0.0000E+00  0.0000E+00  0.0000E+00  0.0000E+00  0.0000E+00  0.0000E+00
    -26.188  0.0000E+00  0.0000E+00  0.0000E+00  0.0000E+00  0.0000E+00  0.0000E+00  0.0000E+00  0.0000E+00  0.0000E+00
    -26.064  0.0000E+00  0.0000E+00  0.0000E+00  0.0000E+00  0.0000E+00  0.0000E+00  0.0000E+00  0.0000E+00  0.0000E+00
    -25.940 -0.2675E-32 -0.4767E-32 -0.2351E-32 -0.5946E-32 -0.2772E-27 -0.1437E-27 -0.1554E-28 -0.1422E-27 -0.1300E-27
    -25.815 -0.4227E-28 -0.7686E-28 -0.3788E-28 -0.9522E-28 -0.4491E-23 -0.2346E-23 -0.2791E-24 -0.2304E-23 -0.2119E-23
    -25.691 -0.3066E-24 -0.5696E-24 -0.2805E-24 -0.6996E-24 -0.3340E-19 -0.1763E-19 -0.2359E-20 -0.1717E-19 -0.1592E-19
    -25.566 -0.1020E-20 -0.1939E-20 -0.9537E-21 -0.2356E-20 -0.1139E-15 -0.6090E-16 -0.9391E-17 -0.5887E-16 -0.5511E-16
    -25.442 -0.1507E-17 -0.2939E-17 -0.1445E-17 -0.3525E-17 -0.1726E-12 -0.9401E-13 -0.1718E-13 -0.9003E-13 -0.8540E-13
    -25.318 -0.1043E-14 -0.2084E-14 -0.1026E-14 -0.2462E-14 -0.1221E-09 -0.6793E-10 -0.1486E-10 -0.6464E-10 -0.6211E-10
    -25.193 -0.3295E-12 -0.6743E-12 -0.3330E-12 -0.7815E-12 -0.3927E-07 -0.2249E-07 -0.6013E-08 -0.2124E-07 -0.2075E-07
    -25.069 -0.4727E-10 -0.9879E-10 -0.4921E-10 -0.1119E-09 -0.5689E-05 -0.3386E-05 -0.1120E-05 -0.3179E-05 -0.3163E-05
    -24.944 -0.3056E-08 -0.6476E-08 -0.3282E-08 -0.7129E-08 -0.3663E-03 -0.2295E-03 -0.9471E-04 -0.2146E-03 -0.2177E-03
    -24.820 -0.8732E-07 -0.1849E-06 -0.9676E-07 -0.1967E-06 -0.1019E-01 -0.6838E-02 -0.3540E-02 -0.6392E-02 -0.6602E-02
    -24.696 -0.1042E-05 -0.2147E-05 -0.1192E-05 -0.2184E-05 -0.1134E+00 -0.8411E-01 -0.5533E-01 -0.7914E-01 -0.8287E-01
    -24.571 -0.4139E-05 -0.7659E-05 -0.4906E-05 -0.7183E-05 -0.3692E+00 -0.3354E+00 -0.3030E+00 -0.3234E+00 -0.3393E+00
    -24.447  0.4744E-05  0.1382E-04  0.5111E-05  0.1557E-04  0.8364E+00  0.4272E+00  0.2355E-01  0.3633E+00  0.4035E+00
    -24.322  0.5741E-04  0.1113E-03  0.6719E-04  0.1078E-03  0.5564E+01  0.4665E+01  0.3792E+01  0.4449E+01  0.4683E+01
    -24.198  0.1007E-03  0.1629E-03  0.1185E-03  0.1494E-03  0.7453E+01  0.7628E+01  0.7817E+01  0.7602E+01  0.7700E+01
    -24.074  0.5623E-04  0.7103E-04  0.6566E-04  0.6234E-04  0.2907E+01  0.3803E+01  0.4681E+01  0.4026E+01  0.3796E+01
    -23.949  0.3779E-05 -0.1312E-05  0.4140E-05 -0.1608E-05 -0.1522E+00  0.9609E-01  0.3340E+00  0.1895E+00  0.6575E-01
    -23.825 -0.4650E-05 -0.5886E-05 -0.5069E-05 -0.5278E-05 -0.2478E+00 -0.2984E+00 -0.3485E+00 -0.3081E+00 -0.3007E+00
    -23.700 -0.2635E-05 -0.1131E-05 -0.1658E-05 -0.1273E-05 -0.3955E-01 -0.5939E-01 -0.7858E-01 -0.6620E-01 -0.5765E-01
    -23.576  0.2477E-05  0.1516E-06  0.6550E-06  0.6393E-06 -0.2330E-02 -0.4080E-02 -0.5725E-02 -0.4802E-02 -0.3811E-02
    -23.452  0.2332E-04  0.1595E-05  0.7482E-05  0.5403E-05  0.9732E-04  0.9060E-04  0.3602E-03  0.2193E-03  0.1327E-03
    -23.327  0.3715E-04  0.3175E-05  0.1198E-04  0.7950E-05  0.2214E-03  0.3210E-03  0.7943E-03  0.5668E-03  0.3403E-03
    -23.203  0.2144E-04  0.3642E-05  0.6308E-05  0.3912E-05  0.1374E-03  0.2200E-03  0.3601E-03  0.2716E-03  0.1729E-03
    -23.078  0.4408E-05  0.2096E-05  0.7317E-06  0.4284E-06  0.4480E-04  0.7506E-04  0.4807E-05  0.8442E-05  0.2842E-04
    -22.954 -0.5475E-06  0.2429E-06 -0.3126E-06 -0.1880E-06  0.1113E-05  0.1888E-05 -0.2664E-04 -0.1971E-04 -0.5493E-05
    -22.830 -0.5310E-06 -0.1551E-06 -0.1278E-06 -0.8030E-07 -0.4306E-05 -0.6929E-05 -0.5686E-05 -0.4429E-05 -0.4065E-05
    -22.705 -0.1085E-06 -0.4341E-07 -0.2054E-07 -0.1351E-07 -0.1058E-05 -0.1686E-05 -0.5398E-06 -0.4250E-06 -0.8134E-06
    -22.581 -0.8720E-08 -0.3742E-08 -0.1523E-08 -0.1026E-08 -0.8965E-07 -0.1422E-06 -0.2837E-07 -0.2212E-07 -0.6526E-07
    -22.456 -0.2977E-09 -0.1299E-09 -0.5096E-10 -0.3472E-10 -0.3130E-08 -0.4950E-08 -0.7985E-09 -0.6180E-09 -0.2229E-08
    -22.332 -0.4458E-11 -0.1949E-11 -0.7637E-12 -0.5247E-12 -0.4759E-10 -0.7502E-10 -0.1107E-10 -0.8580E-11 -0.3339E-10
    -22.208 -0.2979E-13 -0.1298E-13 -0.5151E-14 -0.3571E-14 -0.3231E-12 -0.5067E-12 -0.7202E-13 -0.5627E-13 -0.2232E-12
    -22.083 -0.8983E-16 -0.3896E-16 -0.1572E-16 -0.1102E-16 -0.9913E-15 -0.1544E-14 -0.2165E-15 -0.1707E-15 -0.6737E-15
    -21.959 -0.1231E-18 -0.5313E-19 -0.2184E-19 -0.1553E-19 -0.1387E-17 -0.2137E-17 -0.2993E-18 -0.2374E-18 -0.9244E-18
    -21.834  0.0000E+00  0.0000E+00  0.0000E+00  0.0000E+00  0.0000E+00  0.0000E+00  0.0000E+00  0.0000E+00  0.0000E+00
    -21.710  0.0000E+00  0.0000E+00  0.0000E+00  0.0000E+00  0.0000E+00  0.0000E+00  0.0000E+00  0.0000E+00  0.0000E+00
    -21.586  0.0000E+00  0.0000E+00  0.0000E+00  0.0000E+00  0.0000E+00  0.0000E+00  0.0000E+00  0.0000E+00  0.0000E+00
    -21.461  0.0000E+00  0.0000E+00  0.0000E+00  0.0000E+00  0.0000E+00  0.0000E+00  0.0000E+00  0.0000E+00  0.0000E+00
    -21.337  0.0000E+00  0.0000E+00  0.0000E+00  0.0000E+00  0.0000E+00  0.0000E+00  0.0000E+00  0.0000E+00  0.0000E+00
    -21.212  0.0000E+00  0.0000E+00  0.0000E+00  0.0000E+00  0.0000E+00  0.0000E+00  0.0000E+00  0.0000E+00  0.0000E+00
    -21.088  0.0000E+00  0.0000E+00  0.0000E+00  0.0000E+00  0.0000E+00  0.0000E+00  0.0000E+00  0.0000E+00  0.0000E+00
    -20.964  0.0000E+00  0.0000E+00  0.0000E+00  0.0000E+00  0.0000E+00  0.0000E+00  0.0000E+00  0.0000E+00  0.0000E+00
    -20.839  0.0000E+00  0.0000E+00  0.0000E+00  0.0000E+00  0.0000E+00  0.0000E+00  0.0000E+00  0.0000E+00  0.0000E+00
    -20.715  0.0000E+00  0.0000E+00  0.0000E+00  0.0000E+00  0.0000E+00  0.0000E+00  0.0000E+00  0.0000E+00  0.0000E+00
    -20.590  0.0000E+00  0.0000E+00  0.0000E+00  0.0000E+00  0.0000E+00  0.0000E+00  0.0000E+00  0.0000E+00  0.0000E+00
    -20.466  0.0000E+00  0.0000E+00  0.0000E+00  0.0000E+00  0.0000E+00  0.0000E+00  0.0000E+00  0.0000E+00  0.0000E+00
    -20.342  0.0000E+00  0.0000E+00  0.0000E+00  0.0000E+00  0.0000E+00  0.0000E+00  0.0000E+00  0.0000E+00  0.0000E+00
    -20.217  0.0000E+00  0.0000E+00  0.0000E+00  0.0000E+00  0.0000E+00  0.0000E+00  0.0000E+00  0.0000E+00  0.0000E+00
    -20.093  0.0000E+00  0.0000E+00  0.0000E+00  0.0000E+00  0.0000E+00  0.0000E+00  0.0000E+00  0.0000E+00  0.0000E+00
    -19.968  0.0000E+00  0.0000E+00  0.0000E+00  0.0000E+00  0.0000E+00  0.0000E+00  0.0000E+00  0.0000E+00  0.0000E+00
    -19.844  0.0000E+00  0.0000E+00  0.0000E+00  0.0000E+00  0.0000E+00  0.0000E+00  0.0000E+00  0.0000E+00  0.0000E+00
    -19.720  0.0000E+00  0.0000E+00  0.0000E+00  0.0000E+00  0.0000E+00  0.0000E+00  0.0000E+00  0.0000E+00  0.0000E+00
    -19.595  0.0000E+00  0.0000E+00  0.0000E+00  0.0000E+00  0.0000E+00  0.0000E+00  0.0000E+00  0.0000E+00  0.0000E+00
    -19.471  0.0000E+00  0.0000E+00  0.0000E+00  0.0000E+00  0.0000E+00  0.0000E+00  0.0000E+00  0.0000E+00  0.0000E+00
    -19.346  0.0000E+00  0.0000E+00  0.0000E+00  0.0000E+00  0.0000E+00  0.0000E+00  0.0000E+00  0.0000E+00  0.0000E+00
    -19.222  0.0000E+00  0.0000E+00  0.0000E+00  0.0000E+00  0.0000E+00  0.0000E+00  0.0000E+00  0.0000E+00  0.0000E+00
    -19.098  0.0000E+00  0.0000E+00  0.0000E+00  0.0000E+00  0.0000E+00  0.0000E+00  0.0000E+00  0.0000E+00  0.0000E+00
    -18.973  0.0000E+00  0.0000E+00  0.0000E+00  0.0000E+00  0.0000E+00  0.0000E+00  0.0000E+00  0.0000E+00  0.0000E+00
    -18.849  0.0000E+00  0.0000E+00  0.0000E+00  0.0000E+00  0.0000E+00  0.0000E+00  0.0000E+00  0.0000E+00  0.0000E+00
    -18.724  0.0000E+00  0.0000E+00  0.0000E+00  0.0000E+00  0.0000E+00  0.0000E+00  0.0000E+00  0.0000E+00  0.0000E+00
    -18.600  0.0000E+00  0.0000E+00  0.0000E+00  0.0000E+00  0.0000E+00  0.0000E+00  0.0000E+00  0.0000E+00  0.0000E+00
    -18.476  0.0000E+00  0.0000E+00  0.0000E+00  0.0000E+00  0.0000E+00  0.0000E+00  0.0000E+00  0.0000E+00  0.0000E+00
    -18.351  0.0000E+00  0.0000E+00  0.0000E+00  0.0000E+00  0.0000E+00  0.0000E+00  0.0000E+00  0.0000E+00  0.0000E+00
    -18.227  0.0000E+00  0.0000E+00  0.0000E+00  0.0000E+00  0.0000E+00  0.0000E+00  0.0000E+00  0.0000E+00  0.0000E+00
    -18.102  0.0000E+00  0.0000E+00  0.0000E+00  0.0000E+00  0.0000E+00  0.0000E+00  0.0000E+00  0.0000E+00  0.0000E+00
    -17.978  0.0000E+00  0.0000E+00  0.0000E+00  0.0000E+00  0.0000E+00  0.0000E+00  0.0000E+00  0.0000E+00  0.0000E+00
    -17.854  0.0000E+00  0.0000E+00  0.0000E+00  0.0000E+00  0.0000E+00  0.0000E+00  0.0000E+00  0.0000E+00  0.0000E+00
    -17.729  0.0000E+00  0.0000E+00  0.0000E+00  0.0000E+00  0.0000E+00  0.0000E+00  0.0000E+00  0.0000E+00  0.0000E+00
    -17.605  0.0000E+00  0.0000E+00  0.0000E+00  0.0000E+00  0.0000E+00  0.0000E+00  0.0000E+00  0.0000E+00  0.0000E+00
    -17.480  0.0000E+00  0.0000E+00  0.0000E+00  0.0000E+00  0.0000E+00  0.0000E+00  0.0000E+00  0.0000E+00  0.0000E+00
    -17.356  0.0000E+00  0.0000E+00  0.0000E+00  0.0000E+00  0.0000E+00  0.0000E+00  0.0000E+00  0.0000E+00  0.0000E+00
    -17.232  0.0000E+00  0.0000E+00  0.0000E+00  0.0000E+00  0.0000E+00  0.0000E+00  0.0000E+00  0.0000E+00  0.0000E+00
    -17.107  0.0000E+00  0.0000E+00  0.0000E+00  0.0000E+00  0.0000E+00  0.0000E+00  0.0000E+00  0.0000E+00  0.0000E+00
    -16.983  0.0000E+00  0.0000E+00  0.0000E+00  0.0000E+00  0.0000E+00  0.0000E+00  0.0000E+00  0.0000E+00  0.0000E+00
    -16.858  0.0000E+00  0.0000E+00  0.0000E+00  0.0000E+00  0.0000E+00  0.0000E+00  0.0000E+00  0.0000E+00  0.0000E+00
    -16.734  0.0000E+00  0.0000E+00  0.0000E+00  0.0000E+00  0.0000E+00  0.0000E+00  0.0000E+00  0.0000E+00  0.0000E+00
    -16.610  0.0000E+00  0.0000E+00  0.0000E+00  0.0000E+00  0.0000E+00  0.0000E+00  0.0000E+00  0.0000E+00  0.0000E+00
    -16.485 -0.7081E-30 -0.4974E-32 -0.1255E-31 -0.4241E-32 -0.2125E-34 -0.7315E-35 -0.2555E-33 -0.1442E-32 -0.2728E-33
    -16.361 -0.1382E-25 -0.9697E-28 -0.2450E-27 -0.8313E-28 -0.5371E-30 -0.1842E-30 -0.5015E-29 -0.2811E-28 -0.5324E-29
    -16.236 -0.1241E-21 -0.8699E-24 -0.2202E-23 -0.7510E-24 -0.6226E-26 -0.2129E-26 -0.4537E-25 -0.2522E-24 -0.4783E-25
    -16.112 -0.5132E-18 -0.3591E-20 -0.9112E-20 -0.3127E-20 -0.3305E-22 -0.1127E-22 -0.1893E-21 -0.1041E-20 -0.1978E-21
    -15.988 -0.9488E-15 -0.6623E-17 -0.1686E-16 -0.5840E-17 -0.8025E-19 -0.2732E-19 -0.3545E-18 -0.1920E-17 -0.3659E-18
    -15.863 -0.8239E-12 -0.5738E-14 -0.1466E-13 -0.5120E-14 -0.8601E-16 -0.2924E-16 -0.3116E-15 -0.1664E-14 -0.3178E-15
    -15.739 -0.3278E-09 -0.2276E-11 -0.5842E-11 -0.2064E-11 -0.4305E-13 -0.1462E-13 -0.1260E-12 -0.6598E-12 -0.1265E-12
    -15.614 -0.5945E-07 -0.4112E-09 -0.1061E-08 -0.3803E-09 -0.9758E-11 -0.3313E-11 -0.2332E-10 -0.1192E-09 -0.2296E-10
    -15.490 -0.4870E-05 -0.3352E-07 -0.8716E-07 -0.3175E-07 -0.9963E-09 -0.3382E-09 -0.1956E-08 -0.9723E-08 -0.1882E-08
    -15.366 -0.1767E-03 -0.1209E-05 -0.3172E-05 -0.1181E-05 -0.4549E-07 -0.1545E-07 -0.7317E-07 -0.3507E-06 -0.6840E-07
    -15.241 -0.2713E-02 -0.1838E-04 -0.4891E-04 -0.1879E-04 -0.9168E-06 -0.3121E-06 -0.1174E-05 -0.5335E-05 -0.1052E-05
    -15.117 -0.1518E-01 -0.1007E-03 -0.2766E-03 -0.1134E-03 -0.7836E-05 -0.2682E-05 -0.7205E-05 -0.2929E-04 -0.5927E-05
    -14.992 -0.5553E-02 -0.2092E-04 -0.1217E-03 -0.1026E-03 -0.2280E-04 -0.7933E-05 -0.7295E-05 -0.6656E-05 -0.2490E-05
    -14.868  0.1687E+00  0.1162E-02  0.3016E-02  0.1092E-02  0.3229E-04  0.1041E-04  0.6725E-04  0.3360E-03  0.6475E-04
    -14.744  0.4411E+00  0.2859E-02  0.8115E-02  0.3541E-02  0.3080E-03  0.1047E-03  0.2281E-03  0.8318E-03  0.1726E-03
    -14.619  0.4585E+00  0.2666E-02  0.8840E-02  0.4870E-02  0.7073E-03  0.2459E-03  0.3276E-03  0.7909E-03  0.1874E-03
    -14.495  0.3119E+00  0.1350E-02  0.6653E-02  0.5172E-02  0.1083E-02  0.3880E-03  0.3634E-03  0.4416E-03  0.1457E-03
    -14.370  0.2273E+00  0.6395E-03  0.5366E-02  0.5234E-02  0.1261E-02  0.4647E-03  0.3750E-03  0.2644E-03  0.1259E-03
    -14.246  0.1840E+00  0.2514E-03  0.4850E-02  0.5585E-02  0.1456E-02  0.5644E-03  0.4041E-03  0.2031E-03  0.1322E-03
    -14.122  0.1837E+00 -0.1255E-03  0.5239E-02  0.6619E-02  0.1776E-02  0.6737E-03  0.4745E-03  0.1671E-03  0.1523E-03
    -13.997  0.1395E+00 -0.7806E-03  0.4334E-02  0.5858E-02  0.1581E-02  0.5337E-03  0.4007E-03  0.4349E-04  0.1272E-03
    -13.873  0.1468E+00  0.9366E-03  0.5069E-02  0.7268E-02  0.2168E-02  0.1189E-02  0.5745E-03  0.4630E-03  0.2305E-03
    -13.748  0.1617E+00  0.1086E-01  0.5497E-02  0.7429E-02  0.2932E-02  0.3371E-02  0.9438E-03  0.2386E-02  0.5219E-03
    -13.624  0.1425E+00  0.2213E-01  0.6809E-02  0.1051E-01  0.4944E-02  0.6363E-02  0.1566E-02  0.4644E-02  0.9372E-03
    -13.500  0.1073E+00  0.2417E-01  0.1039E-01  0.1939E-01  0.8367E-02  0.8303E-02  0.2270E-02  0.5297E-02  0.1253E-02
    -13.375  0.4891E-01  0.1848E-01  0.1013E-01  0.2006E-01  0.8399E-02  0.7336E-02  0.2092E-02  0.4213E-02  0.1117E-02
    -13.251  0.1088E-01  0.6949E-02  0.4328E-02  0.8656E-02  0.3598E-02  0.3003E-02  0.8588E-03  0.1633E-02  0.4589E-03
    -13.126  0.1109E-01  0.6868E-04  0.1466E-03  0.1497E-03  0.7651E-04  0.1095E-03  0.7835E-06 -0.2190E-04  0.1344E-04
    -13.002  0.4016E-01  0.2071E-02  0.3320E-03 -0.4798E-03 -0.2342E-04  0.5562E-03  0.9548E-06  0.1934E-03  0.3848E-04
    -12.878  0.5577E-01  0.6046E-02  0.1429E-02  0.5002E-03  0.5633E-03  0.1637E-02  0.2003E-03  0.8942E-03  0.1480E-03
    -12.753  0.5531E-01  0.5630E-02  0.1596E-02  0.8570E-03  0.6395E-03  0.1548E-02  0.2307E-03  0.9204E-03  0.1469E-03
    -12.629  0.6199E-01  0.2821E-02  0.1245E-02  0.8228E-03  0.4311E-03  0.8850E-03  0.1497E-03  0.5114E-03  0.8841E-04
    -12.504  0.7370E-01  0.1643E-02  0.1064E-02  0.6981E-03  0.3103E-03  0.6267E-03  0.9966E-04  0.3024E-03  0.5218E-04
    -12.380  0.6736E-01  0.1134E-02  0.7964E-03  0.5265E-03  0.2335E-03  0.4685E-03  0.6634E-04  0.1956E-03  0.3018E-04
    -12.256  0.4178E-01  0.3899E-03  0.3741E-03  0.3219E-03  0.1278E-03  0.1968E-03  0.2891E-04  0.7109E-04  0.1238E-04
    -12.131  0.2388E-01  0.3922E-04  0.1381E-03  0.1976E-03  0.6319E-04  0.5423E-04  0.1088E-04  0.1390E-04  0.4984E-05
    -12.007  0.1485E-01  0.6565E-04  0.1033E-03  0.1210E-03  0.3995E-04  0.4650E-04  0.1355E-04  0.2616E-04  0.4407E-05
    -11.882 -0.4761E-02  0.4997E-04  0.1045E-03  0.7425E-04  0.2349E-04  0.4480E-04  0.1574E-04  0.3659E-04  0.4158E-05
    -11.758  0.1013E-01  0.3431E-04  0.8914E-04  0.6932E-04  0.8013E-05  0.1773E-04  0.1033E-04  0.2099E-04  0.2427E-05
    -11.634  0.2263E+00  0.9250E-03  0.8840E-04  0.1009E-03  0.4317E-04  0.1001E-03  0.2420E-04  0.3782E-04  0.2825E-05
    -11.509  0.7072E+00  0.3068E-02  0.1555E-03  0.3575E-03  0.2300E-03  0.3982E-03  0.9626E-04  0.1341E-03  0.1314E-04
    -11.385  0.1040E+01  0.3875E-02  0.3725E-03  0.1060E-02  0.5248E-03  0.6047E-03  0.1971E-03  0.2069E-03  0.4082E-04
    -11.260  0.9476E+00  0.2092E-02  0.6513E-03  0.1871E-02  0.7396E-03  0.4892E-03  0.2573E-03  0.1748E-03  0.7304E-04
    -11.136  0.7545E+00  0.4090E-03  0.7790E-03  0.2156E-02  0.7814E-03  0.3178E-03  0.2608E-03  0.1253E-03  0.8528E-04
    -11.012  0.7448E+00 -0.9999E-04  0.9204E-03  0.2323E-02  0.8695E-03  0.2813E-03  0.2695E-03  0.1174E-03  0.9128E-04
    -10.887  0.9313E+00  0.1150E-02  0.1268E-02  0.2415E-02  0.1046E-02  0.4137E-03  0.2684E-03  0.1378E-03  0.8779E-04
    -10.763  0.1280E+01  0.4250E-02  0.1815E-02  0.2177E-02  0.1059E-02  0.6231E-03  0.2327E-03  0.1622E-03  0.7129E-04
    -10.638  0.1143E+01  0.5230E-02  0.1670E-02  0.1401E-02  0.7003E-03  0.5836E-03  0.1334E-03  0.1239E-03  0.3985E-04
    -10.514  0.4088E+00  0.2398E-02  0.7614E-03  0.6851E-03  0.3554E-03  0.3129E-03  0.3118E-04  0.4843E-04  0.1113E-04
    -10.390 -0.2868E-02  0.2926E-03  0.2334E-03  0.4422E-03  0.2025E-03  0.1286E-03  0.4733E-05  0.2034E-04  0.3428E-05
    -10.265 -0.1169E-01  0.7369E-04  0.2228E-03  0.4833E-03  0.1990E-03  0.1055E-03  0.1447E-04  0.2473E-04  0.6996E-05
    -10.141  0.2357E-01  0.2401E-03  0.3594E-03  0.4785E-03  0.2322E-03  0.1435E-03  0.3151E-04  0.4827E-04  0.1328E-04
    -10.016  0.3339E-01  0.4186E-03  0.5609E-03  0.4381E-03  0.2380E-03  0.1773E-03  0.9976E-04  0.1285E-03  0.3521E-04
     -9.892  0.2863E-01  0.4622E-03  0.6553E-03  0.3901E-03  0.1672E-03  0.1363E-03  0.2099E-03  0.2285E-03  0.7487E-04
     -9.768  0.3036E-01  0.4343E-03  0.8057E-03  0.3594E-03  0.1600E-03  0.1536E-03  0.2110E-03  0.2319E-03  0.8228E-04
     -9.643  0.3117E-01  0.3051E-03  0.7462E-03  0.2922E-03  0.1845E-03  0.1844E-03  0.7784E-04  0.1104E-03  0.3908E-04
     -9.519  0.2302E-01  0.1287E-03  0.5562E-03  0.2052E-03  0.1273E-03  0.1403E-03 -0.1548E-05  0.2582E-04  0.1543E-04
     -9.394  0.3281E-01  0.1015E-03  0.8968E-03  0.3176E-03  0.1397E-03  0.1876E-03 -0.5415E-05  0.2850E-04  0.3541E-04
     -9.270  0.4709E-01  0.1129E-03  0.1423E-02  0.4900E-03  0.1540E-03  0.2622E-03 -0.4504E-06  0.4516E-04  0.7031E-04
     -9.146  0.4965E-01  0.9206E-04  0.1632E-02  0.5498E-03  0.1204E-03  0.2732E-03  0.7699E-06  0.4848E-04  0.9067E-04
     -9.021  0.2599E-01  0.4320E-04  0.8869E-03  0.2964E-03  0.5377E-04  0.1429E-03  0.5541E-06  0.2578E-04  0.5119E-04
     -8.897  0.2092E-02  0.2782E-05  0.7936E-04  0.2612E-04  0.2582E-05  0.1170E-04  0.6967E-07  0.2260E-05  0.4862E-05
     -8.773 -0.1979E-02 -0.3530E-05 -0.6562E-04 -0.2205E-04 -0.4534E-05 -0.1085E-04 -0.4010E-07 -0.1929E-05 -0.3721E-05
     -8.648 -0.5097E-03 -0.8920E-06 -0.1743E-04 -0.5837E-05 -0.1082E-05 -0.2821E-05 -0.1180E-07 -0.5152E-06 -0.9968E-06
     -8.524 -0.4470E-04 -0.7980E-07 -0.1568E-05 -0.5240E-06 -0.9206E-07 -0.2507E-06 -0.1090E-08 -0.4714E-07 -0.8891E-07
     -8.399 -0.1705E-05 -0.3212E-08 -0.6180E-07 -0.2063E-07 -0.3486E-08 -0.9781E-08 -0.4204E-10 -0.1920E-08 -0.3422E-08
     -8.275 -0.3076E-07 -0.6342E-10 -0.1167E-08 -0.3893E-09 -0.6375E-10 -0.1827E-09 -0.7345E-12 -0.3804E-10 -0.6195E-10
     -8.151 -0.2763E-09 -0.6391E-12 -0.1109E-10 -0.3698E-11 -0.5904E-12 -0.1717E-11 -0.6096E-14 -0.3829E-12 -0.5557E-12
     -8.026 -0.1272E-11 -0.3298E-14 -0.5407E-13 -0.1803E-13 -0.2822E-14 -0.8292E-14 -0.2499E-16 -0.1970E-14 -0.2549E-14
     -7.902 -0.3011E-14 -0.8527E-17 -0.1341E-15 -0.4470E-16 -0.6900E-17 -0.2041E-16 -0.5216E-19 -0.5083E-17 -0.6009E-17
     -7.777 -0.3068E-17 -0.9928E-20 -0.1467E-18 -0.4891E-19 -0.7449E-20 -0.2211E-19 -0.4174E-22 -0.5885E-20 -0.6062E-20
     -7.653  0.0000E+00  0.0000E+00  0.0000E+00  0.0000E+00  0.0000E+00  0.0000E+00  0.0000E+00  0.0000E+00  0.0000E+00
     -7.529  0.0000E+00  0.0000E+00  0.0000E+00  0.0000E+00  0.0000E+00  0.0000E+00  0.0000E+00  0.0000E+00  0.0000E+00
     -7.404  0.0000E+00  0.0000E+00  0.0000E+00  0.0000E+00  0.0000E+00  0.0000E+00  0.0000E+00  0.0000E+00  0.0000E+00
     -7.280  0.0000E+00  0.0000E+00  0.0000E+00  0.0000E+00  0.0000E+00  0.0000E+00  0.0000E+00  0.0000E+00  0.0000E+00
     -7.155  0.0000E+00  0.0000E+00  0.0000E+00  0.0000E+00  0.0000E+00  0.0000E+00  0.0000E+00  0.0000E+00  0.0000E+00
     -7.031  0.0000E+00  0.0000E+00  0.0000E+00  0.0000E+00  0.0000E+00  0.0000E+00  0.0000E+00  0.0000E+00  0.0000E+00
     -6.907 -0.3239E-31 -0.2920E-30 -0.3580E-30 -0.1011E-29 -0.3857E-32 -0.6584E-32 -0.9757E-32 -0.4435E-32 -0.5148E-32