   30   30   20    1
  0.6327519E+02  0.4192584E-09  0.3117458E-08  0.1677034E-08  0.5000000E-15
  1.000000000000000E-004
  CAR 
 Tetradymite Slab                        
    288     28    256
 
  0.0000000E+00  0.0000000E+00  0.0000000E+00  0.1388889E-01
    1      -24.312861   1.000000
    2      -24.294554   1.000000
    3      -24.256217   1.000000
    4      -24.254111   1.000000
    5      -24.233168   1.000000
    6      -24.168520   1.000000
    7      -24.163849   1.000000
    8      -24.158355   1.000000
    9      -24.154617   1.000000
   10      -24.122863   1.000000
   11      -24.111117   1.000000
   12      -24.105942   1.000000
   13      -24.098575   1.000000
   14      -24.096093   1.000000
   15      -24.088216   1.000000
   16      -24.069759   1.000000
   17      -24.065476   1.000000
   18      -24.033786   1.000000
   19      -24.000804   1.000000
   20      -23.996665   1.000000
   21      -23.776851   1.000000
   22      -23.736777   1.000000
   23      -23.726718   1.000000
   24      -23.652251   1.000000
   25      -23.645877   1.000000
   26      -23.571713   1.000000
   27      -23.562113   1.000000
   28      -23.556784   1.000000
   29      -23.548617   1.000000
   30      -23.532032   1.000000
   31      -23.483070   1.000000
   32      -23.481900   1.000000
   33      -23.458829   1.000000
   34      -23.448082   1.000000
   35      -23.447568   1.000000
   36      -23.415394   1.000000
   37      -23.409684   1.000000
   38      -23.407509   1.000000
   39      -23.399705   1.000000
   40      -23.393856   1.000000
   41      -23.392647   1.000000
   42      -23.370328   1.000000
   43      -23.364483   1.000000
   44      -23.360735   1.000000
   45      -23.356219   1.000000
   46      -23.356073   1.000000
   47      -23.329447   1.000000
   48      -23.325355   1.000000
   49      -23.311386   1.000000
   50      -23.298359   1.000000
   51      -23.296756   1.000000
   52      -23.295726   1.000000
   53      -23.279460   1.000000
   54      -23.274727   1.000000
   55      -23.250301   1.000000
   56      -23.245605   1.000000
   57      -23.242971   1.000000
   58      -23.238403   1.000000
   59      -23.217776   1.000000
   60      -23.211826   1.000000
   61      -14.824748   1.000000
   62      -14.586295   1.000000
   63      -14.424311   1.000000
   64      -14.407038   1.000000
   65      -13.822808   1.000000
   66      -13.808770   1.000000
   67      -13.744205   1.000000
   68      -13.503460   1.000000
   69      -13.362511   1.000000
   70      -13.071136   1.000000
   71      -12.998217   1.000000
   72      -12.948426   1.000000
   73      -12.770263   1.000000
   74      -12.670569   1.000000
   75      -12.540346   1.000000
   76      -12.483391   1.000000
   77      -12.450842   1.000000
   78      -12.031481   1.000000
   79      -10.723271   1.000000
   80      -10.693009   1.000000
   81      -10.474573   1.000000
   82      -10.358092   1.000000
   83      -10.191879   1.000000
   84       -9.935739   1.000000
   85       -9.845167   1.000000
   86       -9.802682   1.000000
   87       -9.576784   1.000000
   88       -9.489495   1.000000
   89       -9.154956   1.000000
   90       -9.043457   1.000000
   91       -5.017688   1.000000
   92       -4.675449   1.000000
   93       -4.542623   1.000000
   94       -4.178794   1.000000
   95       -4.000464   1.000000
   96       -3.914456   1.000000
   97       -3.844411   1.000000
   98       -3.802775   1.000000
   99       -3.735255   1.000000
  100       -3.635220   1.000000
  101       -3.562950   1.000000
  102       -3.397517   1.000000
  103       -3.229656   1.000000
  104       -3.198002   1.000000
  105       -3.106762   1.000000
  106       -3.009026   1.000000
  107       -2.971674   1.000000
  108       -2.913267   1.000000
  109       -2.892528   1.000000
  110       -2.855159   1.000000
  111       -2.760825   1.000000
  112       -2.742962   1.000000
  113       -2.635930   1.000000
  114       -2.614845   1.000000
  115       -2.586937   1.000000
  116       -2.567737   1.000000
  117       -2.487551   1.000000
  118       -2.479659   1.000000
  119       -2.381368   1.000000
  120       -2.292884   1.000000
  121       -2.246621   1.000000
  122       -2.189043   1.000000
  123       -2.055794   1.000000
  124       -1.987882   1.000000
  125       -1.808892   1.000000
  126       -1.800574   1.000000
  127       -1.748656   1.000000
  128       -1.639680   1.000000
  129       -1.545832   1.000000
  130       -1.459899   1.000000
  131       -1.454627   1.000000
  132       -1.379549   1.000000
  133       -1.372939   1.000000
  134       -1.360752   1.000000
  135       -1.330076   1.000000
  136       -1.197215   1.000033
  137       -1.051312   1.001439
  138       -1.014836   1.003059
  139       -0.956925   1.008556
  140       -0.874783   1.024543
  141       -0.827787   1.033903
  142       -0.752653   1.020129
  143       -0.689178   0.937186
  144       -0.585236   0.601046
  145       -0.505648   0.274830
  146       -0.376343  -0.015353
  147       -0.217060  -0.017662
  148       -0.146205  -0.006232
  149        0.078575  -0.000029
  150        0.143501  -0.000004
  151        0.730554  -0.000000
  152        0.886228  -0.000000
  153        0.949182  -0.000000
  154        1.042836  -0.000000
  155        1.068484  -0.000000
  156        1.146693  -0.000000
  157        1.230070  -0.000000
  158        1.524986  -0.000000
  159        1.564191  -0.000000
  160        1.593393  -0.000000
  161        1.606626  -0.000000
  162        1.668580  -0.000000
  163        1.834300  -0.000000
  164        1.846704  -0.000000
  165        1.982628  -0.000000
  166        2.052405  -0.000000
  167        2.077653  -0.000000
  168        2.140083  -0.000000
  169        2.312914  -0.000000
  170        2.370514  -0.000000
  171        2.426671  -0.000000
  172        2.519970  -0.000000
  173        2.558513  -0.000000
  174        2.671431  -0.000000
  175        2.699343  -0.000000
  176        2.823697  -0.000000
  177        2.947657  -0.000000
  178        3.075069  -0.000000
  179        3.301506  -0.000000
  180        3.352624  -0.000000
  181        3.359939  -0.000000
  182        3.477582  -0.000000
  183        3.687646  -0.000000
  184        3.904398  -0.000000
  185        4.036344  -0.000000
  186        4.363682  -0.000000
  187        4.480257  -0.000000
  188        4.542750  -0.000000
  189        4.553540  -0.000000
  190        4.797856  -0.000000
  191        4.885118  -0.000000
  192        4.899184   0.000000
  193        5.001456   0.000000
  194        5.124540   0.000000
  195        5.187808   0.000000
  196        5.272110   0.000000
  197        5.338993   0.000000
  198        5.421531   0.000000
  199        5.474600   0.000000
  200        5.550582   0.000000
  201        5.630788   0.000000
  202        5.640710   0.000000
  203        5.749143   0.000000
  204        5.853115   0.000000
  205        5.955010   0.000000
  206        5.996625   0.000000
  207        6.046409   0.000000
  208        6.136125   0.000000
  209        6.195088   0.000000
  210        6.285439   0.000000
  211        6.324018   0.000000
  212        6.375802   0.000000
  213        6.440803   0.000000
  214        6.603121   0.000000
  215        6.627898   0.000000
  216        6.685036   0.000000
  217        6.782014   0.000000
  218        6.874554   0.000000
  219        6.934168   0.000000
  220        6.958697   0.000000
  221        7.013790   0.000000
  222        7.083419   0.000000
  223        7.113919   0.000000
  224        7.150266   0.000000
  225        7.197175   0.000000
  226        7.277030   0.000000
  227        7.289021   0.000000
  228        7.370614   0.000000
  229        7.410042   0.000000
  230        7.451939   0.000000
  231        7.480528   0.000000
  232        7.539604   0.000000
  233        7.671303   0.000000
  234        7.679954   0.000000
  235        7.771167   0.000000
  236        7.793721   0.000000
  237        7.822359   0.000000
  238        7.928163   0.000000
  239        7.993498   0.000000
  240        8.074048   0.000000
  241        8.134925   0.000000
  242        8.144952   0.000000
  243        8.206726   0.000000
  244        8.219388   0.000000
  245        8.248950   0.000000
  246        8.317620   0.000000
  247        8.332256   0.000000
  248        8.411390   0.000000
  249        8.482691   0.000000
  250        8.539091   0.000000
  251        8.624985   0.000000
  252        8.628883   0.000000
  253        8.698563   0.000000
  254        8.787926   0.000000
  255        8.823373   0.000000
  256        8.842575   0.000000
 
  0.8333333E-01  0.4450753E-32  0.0000000E+00  0.5555556E-01
    1      -24.311656   1.000000
    2      -24.295372   1.000000
    3      -24.256032   1.000000
    4      -24.254620   1.000000
    5      -24.232944   1.000000
    6      -24.168285   1.000000
    7      -24.163641   1.000000
    8      -24.158438   1.000000
    9      -24.154101   1.000000
   10      -24.122770   1.000000
   11      -24.111023   1.000000
   12      -24.106354   1.000000
   13      -24.098380   1.000000
   14      -24.096506   1.000000
   15      -24.088010   1.000000
   16      -24.069712   1.000000
   17      -24.065119   1.000000
   18      -24.033673   1.000000
   19      -24.001224   1.000000
   20      -23.996461   1.000000
   21      -23.776202   1.000000
   22      -23.736713   1.000000
   23      -23.727147   1.000000
   24      -23.651192   1.000000
   25      -23.647049   1.000000
   26      -23.570643   1.000000
   27      -23.562874   1.000000
   28      -23.555723   1.000000
   29      -23.549406   1.000000
   30      -23.531436   1.000000
   31      -23.483462   1.000000
   32      -23.481853   1.000000
   33      -23.458450   1.000000
   34      -23.447687   1.000000
   35      -23.446866   1.000000
   36      -23.415338   1.000000
   37      -23.410113   1.000000
   38      -23.407406   1.000000
   39      -23.400141   1.000000
   40      -23.394293   1.000000
   41      -23.392532   1.000000
   42      -23.369362   1.000000
   43      -23.363768   1.000000
   44      -23.362129   1.000000
   45      -23.357284   1.000000
   46      -23.354723   1.000000
   47      -23.328738   1.000000
   48      -23.325300   1.000000
   49      -23.312071   1.000000
   50      -23.299568   1.000000
   51      -23.296684   1.000000
   52      -23.294340   1.000000
   53      -23.279881   1.000000
   54      -23.274016   1.000000
   55      -23.251736   1.000000
   56      -23.244268   1.000000
   57      -23.242896   1.000000
   58      -23.238821   1.000000
   59      -23.216882   1.000000
   60      -23.212806   1.000000
   61      -14.780954   1.000000
   62      -14.543646   1.000000
   63      -14.382613   1.000000
   64      -14.364884   1.000000
   65      -13.789755   1.000000
   66      -13.767172   1.000000
   67      -13.711439   1.000000
   68      -13.474608   1.000000
   69      -13.321659   1.000000
   70      -13.031496   1.000000
   71      -12.955190   1.000000
   72      -12.917288   1.000000
   73      -12.762669   1.000000
   74      -12.671695   1.000000
   75      -12.510855   1.000000
   76      -12.488352   1.000000
   77      -12.431094   1.000000
   78      -12.011168   1.000000
   79      -10.738248   1.000000
   80      -10.732526   1.000000
   81      -10.511884   1.000000
   82      -10.393008   1.000000
   83      -10.244263   1.000000
   84       -9.982578   1.000000
   85       -9.863706   1.000000
   86       -9.813703   1.000000
   87       -9.614570   1.000000
   88       -9.531361   1.000000
   89       -9.226051   1.000000
   90       -9.113372   1.000000
   91       -4.981683   1.000000
   92       -4.647197   1.000000
   93       -4.507702   1.000000
   94       -4.245441   1.000000
   95       -4.222480   1.000000
   96       -4.018561   1.000000
   97       -3.989150   1.000000
   98       -3.906997   1.000000
   99       -3.825655   1.000000
  100       -3.757678   1.000000
  101       -3.661566   1.000000
  102       -3.404081   1.000000
  103       -3.345329   1.000000
  104       -3.319538   1.000000
  105       -3.269037   1.000000
  106       -3.188718   1.000000
  107       -3.124384   1.000000
  108       -3.032291   1.000000
  109       -2.937499   1.000000
  110       -2.888147   1.000000
  111       -2.804551   1.000000
  112       -2.746738   1.000000
  113       -2.660276   1.000000
  114       -2.613080   1.000000
  115       -2.562117   1.000000
  116       -2.545042   1.000000
  117       -2.523186   1.000000
  118       -2.505383   1.000000
  119       -2.442278   1.000000
  120       -2.368650   1.000000
  121       -2.298991   1.000000
  122       -2.247071   1.000000
  123       -2.172054   1.000000
  124       -2.057455   1.000000
  125       -1.855845   1.000000
  126       -1.802295   1.000000
  127       -1.736712   1.000000
  128       -1.710084   1.000000
  129       -1.686553   1.000000
  130       -1.529499   1.000000
  131       -1.456358   1.000000
  132       -1.380156   1.000000
  133       -1.291435   1.000002
  134       -1.258152   1.000005
  135       -1.201595   1.000029
  136       -1.164398   1.000085
  137       -1.030255   1.002246
  138       -1.008891   1.003433
  139       -0.911665   1.016322
  140       -0.871328   1.025341
  141       -0.824433   1.034320
  142       -0.731970   1.002609
  143       -0.680314   0.918101
  144       -0.666046   0.883210
  145       -0.277683  -0.031119
  146       -0.215828  -0.017400
  147       -0.026683  -0.000518
  148        0.018801  -0.000162
  149        0.095418  -0.000018
  150        0.186951  -0.000001
  151        0.826895  -0.000000
  152        0.856624  -0.000000
  153        0.975374  -0.000000
  154        1.083000  -0.000000
  155        1.248942  -0.000000
  156        1.321737  -0.000000
  157        1.418761  -0.000000
  158        1.515111  -0.000000
  159        1.545739  -0.000000
  160        1.566353  -0.000000
  161        1.591042  -0.000000
  162        1.650844  -0.000000
  163        1.738322  -0.000000
  164        1.774640  -0.000000
  165        1.859277  -0.000000
  166        1.915663  -0.000000
  167        2.066655  -0.000000
  168        2.228621  -0.000000
  169        2.287070  -0.000000
  170        2.420186  -0.000000
  171        2.449594  -0.000000
  172        2.501487  -0.000000
  173        2.674133  -0.000000
  174        2.834598  -0.000000
  175        2.855023  -0.000000
  176        2.935212  -0.000000
  177        2.963955  -0.000000
  178        3.064924  -0.000000
  179        3.162316  -0.000000
  180        3.223601  -0.000000
  181        3.478606  -0.000000
  182        3.605880  -0.000000
  183        3.805521  -0.000000
  184        3.982233  -0.000000
  185        4.101738  -0.000000
  186        4.474975  -0.000000
  187        4.544985  -0.000000
  188        4.628580  -0.000000
  189        4.684898  -0.000000
  190        4.792066  -0.000000
  191        4.870486  -0.000000
  192        4.962771   0.000000
  193        5.037932   0.000000
  194        5.138254   0.000000
  195        5.333842   0.000000
  196        5.385658   0.000000
  197        5.435035   0.000000
  198        5.495495   0.000000
  199        5.570815   0.000000
  200        5.637058   0.000000
  201        5.664629   0.000000
  202        5.739180   0.000000
  203        5.813075   0.000000
  204        5.930850   0.000000
  205        5.973741   0.000000
  206        6.031737   0.000000
  207        6.078527   0.000000
  208        6.095109   0.000000
  209        6.157371   0.000000
  210        6.235949   0.000000
  211        6.326304   0.000000
  212        6.390013   0.000000
  213        6.426243   0.000000
  214        6.504178   0.000000
  215        6.545500   0.000000
  216        6.573253   0.000000
  217        6.636054   0.000000
  218        6.701993   0.000000
  219        6.827666   0.000000
  220        6.887621   0.000000
  221        6.956082   0.000000
  222        7.025903   0.000000
  223        7.086558   0.000000
  224        7.135835   0.000000
  225        7.202040   0.000000
  226        7.267538   0.000000
  227        7.317950   0.000000
  228        7.368841   0.000000
  229        7.435692   0.000000
  230        7.463376   0.000000
  231        7.547575   0.000000
  232        7.579325   0.000000
  233        7.632495   0.000000
  234        7.725947   0.000000
  235        7.758043   0.000000
  236        7.811254   0.000000
  237        7.895745   0.000000
  238        7.923426   0.000000
  239        7.954929   0.000000
  240        8.038201   0.000000
  241        8.057913   0.000000
  242        8.122517   0.000000
  243        8.193424   0.000000
  244        8.258224   0.000000
  245        8.321775   0.000000
  246        8.378340   0.000000
  247        8.411800   0.000000
  248        8.432515   0.000000
  249        8.532215   0.000000
  250        8.572664   0.000000
  251        8.611692   0.000000
  252        8.672574   0.000000
  253        8.706715   0.000000
  254        8.733782   0.000000
  255        8.799621   0.000000
  256        8.859450   0.000000
 
  0.1666667E+00 -0.2399656E-31  0.0000000E+00  0.5555556E-01
    1      -24.308862   1.000000
    2      -24.297100   1.000000
    3      -24.255932   1.000000
    4      -24.255484   1.000000
    5      -24.232295   1.000000
    6      -24.170009   1.000000
    7      -24.160653   1.000000
    8      -24.160605   1.000000
    9      -24.150694   1.000000
   10      -24.122512   1.000000
   11      -24.110757   1.000000
   12      -24.107406   1.000000
   13      -24.097813   1.000000
   14      -24.097560   1.000000
   15      -24.087411   1.000000
   16      -24.071644   1.000000
   17      -24.062035   1.000000
   18      -24.033362   1.000000
   19      -24.002293   1.000000
   20      -23.995867   1.000000
   21      -23.774489   1.000000
   22      -23.736502   1.000000
   23      -23.728233   1.000000
   24      -23.650207   1.000000
   25      -23.648235   1.000000
   26      -23.567952   1.000000
   27      -23.564697   1.000000
   28      -23.553328   1.000000
   29      -23.551034   1.000000
   30      -23.529857   1.000000
   31      -23.484447   1.000000
   32      -23.481693   1.000000
   33      -23.457408   1.000000
   34      -23.446593   1.000000
   35      -23.445024   1.000000
   36      -23.415162   1.000000
   37      -23.411180   1.000000
   38      -23.407103   1.000000
   39      -23.401254   1.000000
   40      -23.395367   1.000000
   41      -23.392220   1.000000
   42      -23.366733   1.000000
   43      -23.365569   1.000000
   44      -23.361900   1.000000
   45      -23.359931   1.000000
   46      -23.351416   1.000000
   47      -23.326872   1.000000
   48      -23.325119   1.000000
   49      -23.313966   1.000000
   50      -23.302073   1.000000
   51      -23.296467   1.000000
   52      -23.291100   1.000000
   53      -23.280951   1.000000
   54      -23.272185   1.000000
   55      -23.255109   1.000000
   56      -23.242672   1.000000
   57      -23.241031   1.000000
   58      -23.239883   1.000000
   59      -23.215816   1.000000
   60      -23.213933   1.000000
   61      -14.652135   1.000000
   62      -14.418318   1.000000
   63      -14.261039   1.000000
   64      -14.240807   1.000000
   65      -13.694283   1.000000
   66      -13.645410   1.000000
   67      -13.620318   1.000000
   68      -13.393726   1.000000
   69      -13.203327   1.000000
   70      -12.919679   1.000000
   71      -12.839673   1.000000
   72      -12.824626   1.000000
   73      -12.736695   1.000000
   74      -12.677489   1.000000
   75      -12.511783   1.000000
   76      -12.424436   1.000000
   77      -12.371488   1.000000
   78      -11.952999   1.000000
   79      -10.860368   1.000000
   80      -10.782436   1.000000
   81      -10.625137   1.000000
   82      -10.496222   1.000000
   83      -10.399046   1.000000
   84      -10.124632   1.000000
   85       -9.932373   1.000000
   86       -9.839596   1.000000
   87       -9.730832   1.000000
   88       -9.645178   1.000000
   89       -9.428536   1.000000
   90       -9.318526   1.000000
   91       -4.887699   1.000000
   92       -4.608084   1.000000
   93       -4.581705   1.000000
   94       -4.551385   1.000000
   95       -4.522571   1.000000
   96       -4.366550   1.000000
   97       -4.250009   1.000000
   98       -4.071832   1.000000
   99       -3.994339   1.000000
  100       -3.882714   1.000000
  101       -3.760037   1.000000
  102       -3.677605   1.000000
  103       -3.645145   1.000000
  104       -3.566895   1.000000
  105       -3.537736   1.000000
  106       -3.356976   1.000000
  107       -3.328699   1.000000
  108       -3.286957   1.000000
  109       -3.152862   1.000000
  110       -2.965612   1.000000
  111       -2.905835   1.000000
  112       -2.851685   1.000000
  113       -2.791882   1.000000
  114       -2.737666   1.000000
  115       -2.676703   1.000000
  116       -2.623428   1.000000
  117       -2.562825   1.000000
  118       -2.502078   1.000000
  119       -2.471357   1.000000
  120       -2.403729   1.000000
  121       -2.390259   1.000000
  122       -2.379955   1.000000
  123       -2.304280   1.000000
  124       -2.263162   1.000000
  125       -2.120125   1.000000
  126       -2.058876   1.000000
  127       -1.888307   1.000000
  128       -1.868120   1.000000
  129       -1.698384   1.000000
  130       -1.499397   1.000000
  131       -1.374825   1.000000
  132       -1.289941   1.000002
  133       -1.236076   1.000010
  134       -1.216269   1.000018
  135       -1.177471   1.000059
  136       -1.100327   1.000462
  137       -1.043231   1.001712
  138       -0.990635   1.004826
  139       -0.980853   1.005742
  140       -0.943284   1.010557
  141       -0.872937   1.024969
  142       -0.784024   1.033284
  143       -0.724836   0.994597
  144       -0.595534   0.643081
  145        0.019776  -0.000158
  146        0.156553  -0.000002
  147        0.181704  -0.000001
  148        0.247641  -0.000000
  149        0.283503  -0.000000
  150        0.534053  -0.000000
  151        0.554795  -0.000000
  152        0.977891  -0.000000
  153        0.999710  -0.000000
  154        1.136427  -0.000000
  155        1.288863  -0.000000
  156        1.449884  -0.000000
  157        1.475977  -0.000000
  158        1.565889  -0.000000
  159        1.650955  -0.000000
  160        1.657839  -0.000000
  161        1.720569  -0.000000
  162        1.795311  -0.000000
  163        1.857318  -0.000000
  164        1.921704  -0.000000
  165        1.954770  -0.000000
  166        2.010143  -0.000000
  167        2.206615  -0.000000
  168        2.274066  -0.000000
  169        2.343775  -0.000000
  170        2.508508  -0.000000
  171        2.600468  -0.000000
  172        2.626273  -0.000000
  173        2.679074  -0.000000
  174        2.839148  -0.000000
  175        2.897826  -0.000000
  176        2.925017  -0.000000
  177        3.102175  -0.000000
  178        3.119298  -0.000000
  179        3.246723  -0.000000
  180        3.413963  -0.000000
  181        3.717680  -0.000000
  182        3.867032  -0.000000
  183        4.045743  -0.000000
  184        4.166891  -0.000000
  185        4.282537  -0.000000
  186        4.604160  -0.000000
  187        4.718467  -0.000000
  188        4.774170  -0.000000
  189        4.883056  -0.000000
  190        4.947330   0.000000
  191        5.008334   0.000000
  192        5.147262   0.000000
  193        5.193395   0.000000
  194        5.277269   0.000000
  195        5.360210   0.000000
  196        5.384096   0.000000
  197        5.448023   0.000000
  198        5.503236   0.000000
  199        5.560477   0.000000
  200        5.626687   0.000000
  201        5.669249   0.000000
  202        5.799692   0.000000
  203        5.898438   0.000000
  204        5.953590   0.000000
  205        5.968354   0.000000
  206        6.059288   0.000000
  207        6.130892   0.000000
  208        6.153000   0.000000
  209        6.259164   0.000000
  210        6.288516   0.000000
  211        6.357854   0.000000
  212        6.446485   0.000000
  213        6.540290   0.000000
  214        6.570977   0.000000
  215        6.592040   0.000000
  216        6.662094   0.000000
  217        6.777625   0.000000
  218        6.796522   0.000000
  219        6.837486   0.000000
  220        6.915944   0.000000
  221        6.968600   0.000000
  222        7.017728   0.000000
  223        7.062733   0.000000
  224        7.160020   0.000000
  225        7.202875   0.000000
  226        7.234960   0.000000
  227        7.260779   0.000000
  228        7.298472   0.000000
  229        7.435496   0.000000
  230        7.479719   0.000000
  231        7.539353   0.000000
  232        7.569460   0.000000
  233        7.614607   0.000000
  234        7.655180   0.000000
  235        7.720245   0.000000
  236        7.770444   0.000000
  237        7.809430   0.000000
  238        7.862368   0.000000
  239        7.890530   0.000000
  240        7.966355   0.000000
  241        8.040192   0.000000
  242        8.049160   0.000000
  243        8.140211   0.000000
  244        8.164147   0.000000
  245        8.236100   0.000000
  246        8.294919   0.000000
  247        8.338870   0.000000
  248        8.407302   0.000000
  249        8.490087   0.000000
  250        8.537899   0.000000
  251        8.617269   0.000000
  252        8.644383   0.000000
  253        8.651517   0.000000
  254        8.696740   0.000000
  255        8.773103   0.000000
  256        8.842340   0.000000
 
  0.2500000E+00  0.2245333E-31  0.0000000E+00  0.2777778E-01
    1      -24.307302   1.000000
    2      -24.297286   1.000000
    3      -24.257745   1.000000
    4      -24.254695   1.000000
    5      -24.231347   1.000000
    6      -24.173537   1.000000
    7      -24.164260   1.000000
    8      -24.155348   1.000000
    9      -24.145303   1.000000
   10      -24.122183   1.000000
   11      -24.110424   1.000000
   12      -24.108882   1.000000
   13      -24.099046   1.000000
   14      -24.097025   1.000000
   15      -24.086574   1.000000
   16      -24.075200   1.000000
   17      -24.056885   1.000000
   18      -24.032949   1.000000
   19      -24.003788   1.000000
   20      -23.995034   1.000000
   21      -23.772232   1.000000
   22      -23.736252   1.000000
   23      -23.729747   1.000000
   24      -23.654448   1.000000
   25      -23.644122   1.000000
   26      -23.568103   1.000000
   27      -23.563365   1.000000
   28      -23.554919   1.000000
   29      -23.548408   1.000000
   30      -23.527749   1.000000
   31      -23.485824   1.000000
   32      -23.481519   1.000000
   33      -23.455934   1.000000
   34      -23.445043   1.000000
   35      -23.442639   1.000000
   36      -23.414953   1.000000
   37      -23.412643   1.000000
   38      -23.406732   1.000000
   39      -23.402817   1.000000
   40      -23.396833   1.000000
   41      -23.391843   1.000000
   42      -23.370163   1.000000
   43      -23.363735   1.000000
   44      -23.362794   1.000000
   45      -23.359465   1.000000
   46      -23.346847   1.000000
   47      -23.324911   1.000000
   48      -23.324422   1.000000
   49      -23.316879   1.000000
   50      -23.305024   1.000000
   51      -23.296211   1.000000
   52      -23.286675   1.000000
   53      -23.282450   1.000000
   54      -23.269862   1.000000
   55      -23.259520   1.000000
   56      -23.242409   1.000000
   57      -23.241376   1.000000
   58      -23.236642   1.000000
   59      -23.219247   1.000000
   60      -23.210330   1.000000
   61      -14.446776   1.000000
   62      -14.219050   1.000000
   63      -14.071421   1.000000
   64      -14.042389   1.000000
   65      -13.548142   1.000000
   66      -13.501155   1.000000
   67      -13.451481   1.000000
   68      -13.280553   1.000000
   69      -13.022792   1.000000
   70      -12.779910   1.000000
   71      -12.764277   1.000000
   72      -12.701212   1.000000
   73      -12.663989   1.000000
   74      -12.593184   1.000000
   75      -12.562251   1.000000
   76      -12.291249   1.000000
   77      -12.279514   1.000000
   78      -11.864256   1.000000
   79      -11.054045   1.000000
   80      -10.888624   1.000000
   81      -10.807683   1.000000
   82      -10.659771   1.000000
   83      -10.637052   1.000000
   84      -10.351799   1.000000
   85      -10.069410   1.000000
   86       -9.941767   1.000000
   87       -9.867481   1.000000
   88       -9.790340   1.000000
   89       -9.728111   1.000000
   90       -9.639895   1.000000
   91       -4.966332   1.000000
   92       -4.945947   1.000000
   93       -4.824295   1.000000
   94       -4.680085   1.000000
   95       -4.616038   1.000000
   96       -4.442026   1.000000
   97       -4.435440   1.000000
   98       -4.242169   1.000000
   99       -4.191662   1.000000
  100       -4.149461   1.000000
  101       -3.958069   1.000000
  102       -3.901439   1.000000
  103       -3.771779   1.000000
  104       -3.711248   1.000000
  105       -3.642393   1.000000
  106       -3.633316   1.000000
  107       -3.539743   1.000000
  108       -3.464152   1.000000
  109       -3.386918   1.000000
  110       -3.179774   1.000000
  111       -3.078711   1.000000
  112       -3.074600   1.000000
  113       -3.009644   1.000000
  114       -2.977734   1.000000
  115       -2.858756   1.000000
  116       -2.769919   1.000000
  117       -2.737423   1.000000
  118       -2.674737   1.000000
  119       -2.638188   1.000000
  120       -2.525342   1.000000
  121       -2.425358   1.000000
  122       -2.360822   1.000000
  123       -2.311374   1.000000
  124       -2.251542   1.000000
  125       -2.137776   1.000000
  126       -2.120295   1.000000
  127       -2.065638   1.000000