Tetradymite Slab                        
           1
     3.630884    0.000000   -2.096292
     0.000000   31.174578    0.000000
     0.000000    0.000000   16.770336
   Bi   Se
  12  18
Direct configuration=     1
   0.66666700  0.93747542  0.04166662
   0.66666700  0.72919058  0.04166662
   0.00000000  0.60414242  0.20833338
   0.00000000  0.39585758  0.20833338
   0.33333300  0.27080942  0.12500012
   0.33333300  0.06252458  0.12500012
   0.66666700  0.93747542  0.29166662
   0.66666700  0.72919058  0.29166662
   0.00000000  0.60414242  0.45833338
   0.00000000  0.39585758  0.45833338
   0.33333300  0.27080942  0.37500012
   0.33333300  0.06252458  0.37500012
   0.00000000  0.00000000  0.20833338
   0.33333300  0.88723337  0.12500012
   0.00000000  0.77943363  0.20833338
   0.33333300  0.66666700  0.12500012
   0.66666700  0.55389937  0.04166662
   0.33333300  0.44610063  0.12500012
   0.66666700  0.33333300  0.04166662
   0.00000000  0.22056637  0.20833338
   0.66666700  0.11276663  0.04166662
   0.00000000  0.00000000  0.45833338
   0.33333300  0.88723337  0.37500012
   0.00000000  0.77943363  0.45833338
   0.33333300  0.66666700  0.37500012
   0.66666700  0.55389937  0.29166662
   0.33333300  0.44610063  0.37500012
   0.66666700  0.33333300  0.29166662
   0.00000000  0.22056637  0.45833338
   0.66666700  0.11276663  0.29166662
Direct configuration=     2
   0.67474004  0.93677391  0.04570315
   0.67704675  0.72864462  0.04685650
  -0.00826890  0.60315022  0.20419893
  -0.01326508  0.39596176  0.20170083
   0.32966348  0.27249051  0.12316537
   0.33333300  0.06252458  0.12500012
   0.66666700  0.93747542  0.29166662
   0.67504768  0.73019773  0.29585696
  -0.01005121  0.60472815  0.45330777
  -0.00826551  0.39660835  0.45420062
   0.33672863  0.26830482  0.37669794
   0.33708792  0.06087297  0.37687758
  -0.00235163 -0.00052752  0.20715756
   0.32580321  0.88819505  0.12123523
   0.00000000  0.77943363  0.20833338
   0.32688825  0.66767910  0.12177775
   0.67269712  0.55448990  0.04468168
   0.33773663  0.44553689  0.12720194
   0.67333327  0.33287971  0.04499976
   0.00383881  0.22079283  0.21025278
   0.66666700  0.11276663  0.04166662
   0.00000000  0.00000000  0.45833338
   0.32893858  0.88782673  0.37280292
  -0.00606749  0.77884282  0.45529963
   0.33972900  0.66563078  0.37819812
   0.67309502  0.55436092  0.29488063
   0.34109584  0.44512846  0.37888154
   0.66895092  0.33387066  0.29280859
  -0.00317323  0.22189503  0.45674676
   0.66666700  0.11276663  0.29166662
Direct configuration=     3
   0.69895917  0.93466939  0.05781271
   0.70818598  0.72700671  0.06242612
  -0.03307559  0.60017365  0.19179558
  -0.05306032  0.39627427  0.18180321
   0.31865494  0.27753380  0.11766109
   0.33333300  0.06252458  0.12500012
   0.66666700  0.93747542  0.29166662
   0.70018972  0.73321915  0.30842798
  -0.04020485  0.60648537  0.43823095
  -0.03306205  0.39886065  0.44180235
   0.34691552  0.26079103  0.38179138
   0.34835268  0.05591812  0.38250996
  -0.00940651 -0.00211007  0.20363012
   0.30321382  0.89108011  0.10994054
   0.00000000  0.77943363  0.20833338
   0.30755400  0.67071539  0.11211062
   0.69078748  0.55626149  0.05372686
   0.35094752  0.44384567  0.13380738
   0.69333209  0.33151983  0.05499917
   0.01535525  0.22147221  0.21601100
   0.66666700  0.11276663  0.04166662
   0.00000000  0.00000000  0.45833338
   0.31575533  0.88960680  0.36621129
  -0.02426994  0.77707039  0.44619840
   0.35891699  0.66252214  0.38779212
   0.69237906  0.55574558  0.30452266
   0.36438435  0.44221196  0.39052580
   0.67580268  0.33548363  0.29623447
  -0.01269292  0.22588100  0.45198691
   0.66666700  0.11276663  0.29166662
Direct configuration=     4
   0.68839753  0.93558714  0.05253189
   0.69460657  0.72772098  0.05563641
  -0.02225772  0.60147169  0.19720452
  -0.03570615  0.39613799  0.19048030
   0.32345562  0.27533449  0.12006144
   0.33333300  0.06252458  0.12500012
   0.66666700  0.93747542  0.29166662
   0.68922561  0.73190155  0.30294593
  -0.02705525  0.60571907  0.44480575
  -0.02224861  0.39787845  0.44720907
   0.34247315  0.26406769  0.37957020
   0.34344027  0.05807886  0.38005376
  -0.00632997 -0.00141994  0.20516839
   0.31306475  0.88982197  0.11486600
   0.00000000  0.77943363  0.20833338
   0.31598541  0.66939130  0.11632633
   0.68289851  0.55548892  0.04978238
   0.34518642  0.44458319  0.13092684
   0.68461087  0.33211286  0.05063856
   0.01033308  0.22117594  0.21349992
   0.66666700  0.11276663  0.04166662
   0.00000000  0.00000000  0.45833338
   0.32150437  0.88883053  0.36908581
  -0.01633209  0.77784332  0.45016733
   0.35054936  0.66387778  0.38360831
   0.68396955  0.55514175  0.30031790
   0.35422854  0.44348381  0.38544789
   0.67281472  0.33478024  0.29474048
  -0.00854151  0.22414277  0.45406262
   0.66666700  0.11276663  0.29166662
Direct configuration=     5
   0.69043767  0.93540987  0.05355196
   0.69722964  0.72758301  0.05694794
  -0.02434735  0.60122096  0.19615970
  -0.03905836  0.39616432  0.18880419
   0.32252830  0.27575932  0.11959777
   0.33333300  0.06252458  0.12500012
   0.66666700  0.93747542  0.29166662
   0.69134349  0.73215606  0.30400487
  -0.02959529  0.60586709  0.44353573
  -0.02433738  0.39806818  0.44616468
   0.34333126  0.26343476  0.37999925
   0.34438917  0.05766148  0.38052821
  -0.00692425 -0.00155324  0.20487125
   0.31116190  0.89006500  0.11391458
   0.00000000  0.77943363  0.20833338
   0.31435676  0.66964707  0.11551200
   0.68442238  0.55563816  0.05054432
   0.34629926  0.44444073  0.13148326
   0.68629551  0.33199830  0.05148088
   0.01130319  0.22123317  0.21398497
   0.66666700  0.11276663  0.04166662
   0.00000000  0.00000000  0.45833338
   0.32039386  0.88898048  0.36853055
  -0.01786540  0.77769402  0.44940067
   0.35216569  0.66361592  0.38441647
   0.68559397  0.55525839  0.30113011
   0.35619028  0.44323813  0.38642877
   0.67339189  0.33491611  0.29502907
  -0.00934342  0.22447854  0.45366167
   0.66666700  0.11276663  0.29166662
Direct configuration=     6
   0.69349674  0.93719816  0.05508149
   0.71024974  0.72618414  0.06345800
  -0.03352982  0.59965647  0.19156846
  -0.04575475  0.39500436  0.18545600
   0.32296620  0.27639421  0.11981672
   0.33333300  0.06252458  0.12500012
   0.66666700  0.93747542  0.29166662
   0.69981000  0.73339238  0.30823813
  -0.03585663  0.60823778  0.44040506
  -0.03070452  0.39573204  0.44298112
   0.33684970  0.26379105  0.37675848
   0.34728984  0.05585832  0.38197855
  -0.01101158 -0.00232915  0.20282759
   0.30842339  0.88898141  0.11254532
   0.00000000  0.77943363  0.20833338
   0.30290641  0.67128138  0.10978683
   0.68974593  0.55621282  0.05320609
   0.34606522  0.44552240  0.13136623
   0.69059179  0.33193537  0.05362902
   0.01243087  0.22221300  0.21454881
   0.66666700  0.11276663  0.04166662
   0.00000000  0.00000000  0.45833338
   0.31414922  0.88961594  0.36540824
  -0.02114361  0.77738278  0.44776157
   0.36345875  0.66213354  0.39006300
   0.68602287  0.55463194  0.30134456
   0.35707342  0.44437950  0.38687033
   0.67867197  0.33582786  0.29766911
  -0.00180766  0.22294793  0.45742955
   0.66666700  0.11276663  0.29166662
Direct configuration=     7
   0.69377545  0.93736109  0.05522085
   0.71143602  0.72605669  0.06405114
  -0.03436645  0.59951392  0.19115015
  -0.04636487  0.39489868  0.18515094
   0.32300610  0.27645206  0.11983667
   0.33333300  0.06252458  0.12500012
   0.66666700  0.93747542  0.29166662
   0.70058140  0.73350502  0.30862383
  -0.03642712  0.60845378  0.44011982
  -0.03128463  0.39551919  0.44269106
   0.33625916  0.26382351  0.37646320
   0.34755412  0.05569403  0.38211069
  -0.01138398 -0.00239984  0.20264139
   0.30817388  0.88888268  0.11242056
   0.00000000  0.77943363  0.20833338
   0.30186315  0.67143028  0.10926520
   0.69023096  0.55626518  0.05344861
   0.34604389  0.44562095  0.13135557
   0.69098323  0.33192964  0.05382474
   0.01253361  0.22230227  0.21460018
   0.66666700  0.11276663  0.04166662
   0.00000000  0.00000000  0.45833338
   0.31358027  0.88967384  0.36512376
  -0.02144230  0.77735442  0.44761223
   0.36448768  0.66199848  0.39057746
   0.68606195  0.55457487  0.30136410
   0.35715388  0.44448350  0.38691057
   0.67915305  0.33591094  0.29790965
  -0.00112107  0.22280847  0.45777284
   0.66666700  0.11276663  0.29166662
Direct configuration=     8
   0.69427224  0.93886412  0.05546924
   0.71400192  0.72563083  0.06533408
  -0.02848756  0.59972618  0.19408960
  -0.04444058  0.39513587  0.18611309
   0.32560370  0.27586946  0.12113547
   0.33333300  0.06252458  0.12500012
   0.66666700  0.93747542  0.29166662
   0.69891619  0.73338202  0.30779122
  -0.03611096  0.60933134  0.44027790
  -0.03505184  0.39376428  0.44080745
   0.33621711  0.26428480  0.37644218
   0.34788160  0.05514381  0.38227443
  -0.01475274 -0.00289558  0.20095700
   0.30765985  0.88807656  0.11216355
   0.00000000  0.77943363  0.20833338
   0.29588722  0.67177434  0.10627723
   0.68180425  0.55491362  0.04923525
   0.34421102  0.44642138  0.13043914
   0.68916729  0.33174356  0.05291677
   0.00887024  0.22306726  0.21276849
   0.66666700  0.11276663  0.04166662
   0.00000000  0.00000000  0.45833338
   0.30957954  0.88979845  0.36312339
  -0.01451280  0.77836398  0.45107698
   0.37057605  0.66194256  0.39362165
   0.68377441  0.55413200  0.30022033
   0.35589268  0.44520357  0.38627996
   0.68215387  0.33647893  0.29941006
   0.00353222  0.22178067  0.46009949
   0.66666700  0.11276663  0.29166662
Direct configuration=     9
   0.69428010  0.93888789  0.05547317
   0.71404249  0.72562410  0.06535437
  -0.02839459  0.59972954  0.19413608
  -0.04441015  0.39513962  0.18612830
   0.32564478  0.27586025  0.12115601
   0.33333300  0.06252458  0.12500012
   0.66666700  0.93747542  0.29166662
   0.69888986  0.73338007  0.30777805
  -0.03610596  0.60934521  0.44028040
  -0.03511142  0.39373653  0.44077767
   0.33621645  0.26429209  0.37644185
   0.34788678  0.05513511  0.38227702
  -0.01480602 -0.00290342  0.20093037
   0.30765172  0.88806381  0.11215949
   0.00000000  0.77943363  0.20833338
   0.29579271  0.67177978  0.10622998
   0.68167099  0.55489225  0.04916862
   0.34418204  0.44643404  0.13042464
   0.68913857  0.33174062  0.05290241
   0.00881230  0.22307936  0.21273953
   0.66666700  0.11276663  0.04166662
   0.00000000  0.00000000  0.45833338
   0.30951627  0.88980042  0.36309176
  -0.01440321  0.77837995  0.45113177
   0.37067233  0.66194167  0.39366979
   0.68373823  0.55412500  0.30020224
   0.35587273  0.44521496  0.38626999
   0.68220133  0.33648791  0.29943379
   0.00360581  0.22176441  0.46013628
   0.66666700  0.11276663  0.29166662
Direct configuration=    10
   0.69492452  0.93983152  0.05579538
   0.71226788  0.72571519  0.06446706
  -0.02999057  0.59853685  0.19333809
  -0.04313334  0.39596835  0.18676670
   0.32638188  0.27523430  0.12152457
   0.33333300  0.06252458  0.12500012
   0.66666700  0.93747542  0.29166662
   0.70230301  0.73418870  0.30948463
  -0.03395708  0.60933618  0.44135483
  -0.03811582  0.39283603  0.43927547
   0.33990685  0.26396226  0.37828705
   0.34778912  0.05497336  0.38222819
  -0.01828284 -0.00336372  0.19919196
   0.30639921  0.88788538  0.11153323
   0.00000000  0.77943363  0.20833338
   0.29155037  0.67133993  0.10410881
   0.68068266  0.55474613  0.04867445
   0.34275766  0.44697898  0.12971246
   0.68778605  0.33160793  0.05222615
   0.00561811  0.22383004  0.21114243
   0.66666700  0.11276663  0.04166662
   0.00000000  0.00000000  0.45833338
   0.30586645  0.88962177  0.36126685
  -0.01183540  0.77861404  0.45241567
   0.37531043  0.66258560  0.39598884
   0.68115519  0.55408181  0.29891072
   0.35518645  0.44526127  0.38592685
   0.68369213  0.33678494  0.30017919
   0.00588283  0.22133396  0.46127479
   0.66666700  0.11276663  0.29166662
Direct configuration=    11
   0.69535927  0.94046812  0.05601276
   0.71107066  0.72577665  0.06386846
  -0.03106727  0.59773222  0.19279974
  -0.04227196  0.39652743  0.18719739
   0.32687916  0.27481201  0.12177321
   0.33333300  0.06252458  0.12500012
   0.66666700  0.93747542  0.29166662
   0.70460564  0.73473424  0.31063594
  -0.03250738  0.60933008  0.44207969
  -0.04014269  0.39222853  0.43826203
   0.34239652  0.26373974  0.37953188
   0.34772324  0.05486423  0.38219524
  -0.02062842 -0.00367425  0.19801917
   0.30555422  0.88776501  0.11111073
   0.00000000  0.77943363  0.20833338
   0.28868834  0.67104320  0.10267780
   0.68001590  0.55464754  0.04834107
   0.34179673  0.44734661  0.12923199
   0.68687359  0.33151842  0.05176992
   0.00346319  0.22433647  0.21006497
   0.66666700  0.11276663  0.04166662
   0.00000000  0.00000000  0.45833338
   0.30340415  0.88950124  0.36003570
  -0.01010307  0.77877197  0.45328184
   0.37843946  0.66302001  0.39755335
   0.67941257  0.55405268  0.29803941
   0.35472346  0.44529251  0.38569536
   0.68469787  0.33698532  0.30068206
   0.00741899  0.22104357  0.46204287
   0.66666700  0.11276663  0.29166662
Direct configuration=    12
   0.69393107  0.94054727  0.05529866
   0.70787184  0.72610523  0.06226904
  -0.03150017  0.59694226  0.19258329
  -0.04357656  0.39743686  0.18654510
   0.32271907  0.27474026  0.11969316
   0.33333300  0.06252458  0.12500012
   0.66666700  0.93747542  0.29166662
   0.70657649  0.73538550  0.31162137
  -0.03178663  0.60879112  0.44244006
  -0.03905078  0.39236975  0.43880799
   0.34686134  0.26302550  0.38176429
   0.34738806  0.05501633  0.38202766
  -0.02289318 -0.00378536  0.19688678
   0.30349330  0.88814741  0.11008027
   0.00000000  0.77943363  0.20833338
   0.28439158  0.67037768  0.10052941
   0.67748322  0.55419390  0.04707473
   0.34063750  0.44784602  0.12865238
   0.68850796  0.33159584  0.05258710
   0.00436700  0.22482104  0.21051687
   0.66666700  0.11276663  0.04166662
   0.00000000  0.00000000  0.45833338
   0.30022528  0.88893269  0.35844626
  -0.00593523  0.77924942  0.45536576
   0.38364959  0.66368831  0.40015842
   0.67900189  0.55414015  0.29783407
   0.35419090  0.44489210  0.38542907
   0.68244312  0.33647284  0.29955468
   0.00896279  0.22071354  0.46281477
   0.66666700  0.11276663  0.29166662
Direct configuration=    13
   0.69232941  0.94063604  0.05449783
   0.70428450  0.72647372  0.06047537
  -0.03198564  0.59605636  0.19234055
  -0.04503960  0.39845674  0.18581358
   0.31805371  0.27465980  0.11736048
   0.33333300  0.06252458  0.12500012
   0.66666700  0.93747542  0.29166662
   0.70878672  0.73611585  0.31272648
  -0.03097835  0.60818670  0.44284420
  -0.03782624  0.39252813  0.43942025
   0.35186843  0.26222452  0.38426784
   0.34701219  0.05518689  0.38183972
  -0.02543301 -0.00390996  0.19561687
   0.30118207  0.88857626  0.10892466
   0.00000000  0.77943363  0.20833338
   0.27957295  0.66963133  0.09812010
   0.67464293  0.55368515  0.04565459
   0.33933748  0.44840609  0.12800237
   0.69034082  0.33168266  0.05350354
   0.00538058  0.22536446  0.21102366
   0.66666700  0.11276663  0.04166662
   0.00000000  0.00000000  0.45833338
   0.29666031  0.88829508  0.35666378
  -0.00126119  0.77978486  0.45770278
   0.38949251  0.66443776  0.40307988
   0.67854132  0.55423825  0.29760379
   0.35359365  0.44444304  0.38513045
   0.67991451  0.33589811  0.29829038
   0.01069409  0.22034344  0.46368042
   0.66666700  0.11276663  0.29166662
Direct configuration=    14
   0.68761890  0.94049712  0.05214257
   0.70309363  0.72631176  0.05987994
  -0.03445418  0.59577244  0.19110629
  -0.04544031  0.39872674  0.18561322
   0.31244482  0.27454194  0.11455603
   0.33333300  0.06252458  0.12500012
   0.66666700  0.93747542  0.29166662
   0.71054783  0.73661674  0.31360704
  -0.03068161  0.60805077  0.44299257
  -0.03854548  0.39226094  0.43906063
   0.35307003  0.26207289  0.38486864
   0.34676871  0.05546314  0.38171798
  -0.02574695 -0.00374373  0.19545990
   0.29950353  0.88896463  0.10808539
   0.00000000  0.77943363  0.20833338
   0.27370919  0.66960585  0.09518822
   0.67260486  0.55320478  0.04463555
   0.33685299  0.44945995  0.12676012
   0.69239732  0.33205037  0.05453179
   0.00865360  0.22595523  0.21266017
   0.66666700  0.11276663  0.04166662
   0.00000000  0.00000000  0.45833338
   0.29330948  0.88752565  0.35498836
   0.00283367  0.78025502  0.45975021
   0.39603469  0.66447649  0.40635097
   0.68011144  0.55395708  0.29838885
   0.35337926  0.44410755  0.38502326
   0.67946609  0.33568456  0.29806617
   0.01438038  0.21925568  0.46552357
   0.66666700  0.11276663  0.29166662
Direct configuration=    15
   0.68458402  0.94040763  0.05062513
   0.70232639  0.72620742  0.05949632
  -0.03604460  0.59558952  0.19031107
  -0.04569848  0.39890069  0.18548413
   0.30883113  0.27446600  0.11274919
   0.33333300  0.06252458  0.12500012
   0.66666700  0.93747542  0.29166662
   0.71168248  0.73693945  0.31417436
  -0.03049044  0.60796319  0.44308816
  -0.03900887  0.39208879  0.43882894
   0.35384419  0.26197520  0.38525572
   0.34661185  0.05564113  0.38163955
  -0.02594922 -0.00363664  0.19535876
   0.29842208  0.88921486  0.10754467
   0.00000000  0.77943363  0.20833338
   0.26993129  0.66958944  0.09329927
   0.67129178  0.55289529  0.04397901
   0.33525229  0.45013893  0.12595977
   0.69372228  0.33228728  0.05519427
   0.01076233  0.22633586  0.21371454
   0.66666700  0.11276663  0.04166662
   0.00000000  0.00000000  0.45833338
   0.29115061  0.88702993  0.35390893
   0.00547190  0.78055794  0.46106933
   0.40024967  0.66450143  0.40845846
   0.68112303  0.55377593  0.29889464
   0.35324114  0.44389140  0.38495420
   0.67917719  0.33554698  0.29792172
   0.01675538  0.21855486  0.46671107
   0.66666700  0.11276663  0.29166662
Direct configuration=    16
   0.68328716  0.94036938  0.04997670
   0.70199853  0.72616283  0.05933239
  -0.03672422  0.59551135  0.18997126
  -0.04580880  0.39897502  0.18542897
   0.30728693  0.27443355  0.11197709
   0.33333300  0.06252458  0.12500012
   0.66666700  0.93747542  0.29166662
   0.71216733  0.73707735  0.31441679
  -0.03040874  0.60792577  0.44312900
  -0.03920689  0.39201523  0.43872993
   0.35417501  0.26193346  0.38542113
   0.34654481  0.05571718  0.38160603
  -0.02603565 -0.00359087  0.19531555
   0.29795996  0.88932178  0.10731361
   0.00000000  0.77943363  0.20833338
   0.26831692  0.66958242  0.09249209
   0.67073067  0.55276304  0.04369846
   0.33456828  0.45042907  0.12561777
   0.69428846  0.33238852  0.05547736
   0.01166343  0.22649850  0.21416509
   0.66666700  0.11276663  0.04166662
   0.00000000  0.00000000  0.45833338
   0.29022808  0.88681810  0.35344767
   0.00659927  0.78068738  0.46163301
   0.40205081  0.66451209  0.40935903
   0.68155531  0.55369852  0.29911078
   0.35318212  0.44379904  0.38492469
   0.67905374  0.33548818  0.29785999
   0.01777026  0.21825539  0.46721851
   0.66666700  0.11276663  0.29166662
Direct configuration=    17
   0.67969469  0.94030285  0.04818047
   0.70229544  0.72597767  0.05948084
  -0.04135028  0.59513795  0.18765823
  -0.04547389  0.39960346  0.18559643
   0.30343687  0.27408060  0.11005206
   0.33333300  0.06252458  0.12500012
   0.66666700  0.93747542  0.29166662
   0.71737876  0.73785417  0.31702250
  -0.02991547  0.60796493  0.44337564
  -0.04127939  0.39139762  0.43769368
   0.35734143  0.26179508  0.38700434
   0.34661857  0.05598067  0.38164291
  -0.02661061 -0.00365041  0.19502807
   0.29602404  0.88985602  0.10634564
   0.00000000  0.77943363  0.20833338
   0.26272246  0.66980134  0.08969485
   0.67122242  0.55260120  0.04394433
   0.33274848  0.45110121  0.12470787
   0.69512122  0.33256066  0.05589373
   0.01274440  0.22723801  0.21470558
   0.66666700  0.11276663  0.04166662
   0.00000000  0.00000000  0.45833338
   0.28636062  0.88609391  0.35151393
   0.00655790  0.78060726  0.46161233
   0.40818852  0.66431553  0.41242788
   0.68300203  0.55346136  0.29983414
   0.35303744  0.44356600  0.38485235
   0.67968606  0.33562939  0.29817615
   0.01997831  0.21741163  0.46832253
   0.66666700  0.11276663  0.29166662
Direct configuration=    18
   0.67972943  0.94030350  0.04819784
   0.70229257  0.72597946  0.05947941
  -0.04130555  0.59514156  0.18768060
  -0.04547713  0.39959738  0.18559481
   0.30347410  0.27408401  0.11007068
   0.33333300  0.06252458  0.12500012
   0.66666700  0.93747542  0.29166662
   0.71732836  0.73784666  0.31699730
  -0.02992024  0.60796455  0.44337325
  -0.04125935  0.39140359  0.43770370
   0.35731081  0.26179642  0.38698903
   0.34661786  0.05597812  0.38164255
  -0.02660505 -0.00364984  0.19503085
   0.29604276  0.88985086  0.10635501
   0.00000000  0.77943363  0.20833338
   0.26277656  0.66979923  0.08972190
   0.67121766  0.55260276  0.04394196
   0.33276608  0.45109471  0.12471667
   0.69511316  0.33255900  0.05588971
   0.01273395  0.22723086  0.21470035
   0.66666700  0.11276663  0.04166662
   0.00000000  0.00000000  0.45833338
   0.28639802  0.88610092  0.35153263
   0.00655830  0.78060803  0.46161253
   0.40812916  0.66431743  0.41239821
   0.68298804  0.55346366  0.29982715
   0.35303884  0.44356825  0.38485305
   0.67967994  0.33562803  0.29817310
   0.01995696  0.21741979  0.46831185
   0.66666700  0.11276663  0.29166662
Direct configuration=    19
   0.68018332  0.94051663  0.04842478
   0.70335791  0.72619330  0.06001208
  -0.04120593  0.59524706  0.18773041
  -0.04490354  0.40015163  0.18588161
   0.30401460  0.27384119  0.11034092
   0.33333300  0.06252458  0.12500012
   0.66666700  0.93747542  0.29166662
   0.71828796  0.73778100  0.31747710
  -0.02932181  0.60790272  0.44367247
  -0.04187183  0.39110509  0.43739746
   0.36004152  0.26169732  0.38835438
   0.34693642  0.05599147  0.38180183
  -0.02728948 -0.00389524  0.19468863
   0.29543202  0.89000552  0.10604964
   0.00000000  0.77943363  0.20833338
   0.26199225  0.66984836  0.08932975
   0.67093289  0.55245207  0.04379957
   0.33309643  0.45083937  0.12488184
   0.69427747  0.33233985  0.05547186
   0.01101700  0.22755141  0.21384187
   0.66666700  0.11276663  0.04166662
   0.00000000  0.00000000  0.45833338
   0.28488512  0.88601777  0.35077619
   0.00623935  0.78062049  0.46145305
   0.40896704  0.66421632  0.41281714
   0.68283894  0.55356720  0.29975260
   0.35299660  0.44361997  0.38483193
   0.67998701  0.33580281  0.29832663
   0.01879958  0.21751995  0.46773316
   0.66666700  0.11276663  0.29166662
Direct configuration=    20
   0.68054606  0.94068696  0.04860616
   0.70420933  0.72636421  0.06043779
  -0.04112632  0.59533137  0.18777022
  -0.04444512  0.40059458  0.18611081
   0.30444656  0.27364713  0.11055691
   0.33333300  0.06252458  0.12500012
   0.66666700  0.93747542  0.29166662
   0.71905487  0.73772852  0.31786056
  -0.02884353  0.60785330  0.44391161
  -0.04236132  0.39086653  0.43715271
   0.36222390  0.26161811  0.38944557
   0.34719101  0.05600213  0.38192913
  -0.02783649 -0.00409137  0.19441513
   0.29494392  0.89012912  0.10580559
   0.00000000  0.77943363  0.20833338
   0.26136543  0.66988763  0.08901634
   0.67070529  0.55233164  0.04368577
   0.33336044  0.45063531  0.12501385
   0.69360958  0.33216470  0.05513791
   0.00964481  0.22780760  0.21315578
   0.66666700  0.11276663  0.04166662
   0.00000000  0.00000000  0.45833338
   0.28367602  0.88595131  0.35017163
   0.00598444  0.78063044  0.46132560
   0.40963667  0.66413551  0.41315196
   0.68271978  0.55364996  0.29969302
   0.35296285  0.44366131  0.38481505
   0.68023242  0.33594249  0.29844933
   0.01787460  0.21759999  0.46727068
   0.66666700  0.11276663  0.29166662
