  30  30   1   0
  0.6786351E+02  0.4330646E-09  0.3133730E-08  0.1732258E-08  0.5000000E-15
  1.000000000000000E-004
  CAR 
 Tetradymite Slab                        
      7.64101463    -14.06097459  301      0.44115482      1.00000000
    -14.061  0.0000E+00  0.0000E+00
    -13.989  0.0000E+00  0.0000E+00
    -13.916  0.0000E+00  0.0000E+00
    -13.844  0.0000E+00  0.0000E+00
    -13.772  0.0000E+00  0.0000E+00
    -13.699 -0.1869E-29 -0.1352E-30
    -13.627 -0.6336E-27 -0.4597E-28
    -13.555 -0.1549E-24 -0.1125E-25
    -13.482 -0.2915E-22 -0.2120E-23
    -13.410 -0.4220E-20 -0.3074E-21
    -13.338 -0.4700E-18 -0.3431E-19
    -13.265 -0.4029E-16 -0.2949E-17
    -13.193 -0.2577E-14 -0.1894E-15
    -13.121 -0.1302E-12 -0.9606E-14
    -13.048 -0.5055E-11 -0.3753E-12
    -12.976 -0.1507E-09 -0.1128E-10
    -12.904 -0.3450E-08 -0.2609E-09
    -12.831 -0.6052E-07 -0.4639E-08
    -12.759 -0.8123E-06 -0.6340E-07
    -12.687 -0.8316E-05 -0.6650E-06
    -12.614 -0.6466E-04 -0.5343E-05
    -12.542 -0.3791E-03 -0.3277E-04
    -12.469 -0.1654E-02 -0.1524E-03
    -12.397 -0.5231E-02 -0.5308E-03
    -12.325 -0.1124E-01 -0.1344E-02
    -12.252 -0.1275E-01 -0.2266E-02
    -12.180  0.9277E-02 -0.1595E-02
    -12.108  0.7667E-01  0.3952E-02
    -12.035  0.1887E+00  0.1760E-01
    -11.963  0.3100E+00  0.4003E-01
    -11.891  0.3961E+00  0.6868E-01
    -11.818  0.4305E+00  0.9982E-01
    -11.746  0.4257E+00  0.1306E+00
    -11.674  0.4012E+00  0.1596E+00
    -11.601  0.3831E+00  0.1874E+00
    -11.529  0.4104E+00  0.2170E+00
    -11.457  0.4985E+00  0.2531E+00
    -11.384  0.6007E+00  0.2966E+00
    -11.312  0.6509E+00  0.3437E+00
    -11.240  0.6487E+00  0.3906E+00
    -11.167  0.6592E+00  0.4383E+00
    -11.095  0.7225E+00  0.4905E+00
    -11.023  0.8037E+00  0.5487E+00
    -10.950  0.8397E+00  0.6094E+00
    -10.878  0.8073E+00  0.6678E+00
    -10.806  0.7428E+00  0.7215E+00
    -10.733  0.7148E+00  0.7733E+00
    -10.661  0.7667E+00  0.8287E+00
    -10.589  0.8724E+00  0.8918E+00
    -10.516  0.9693E+00  0.9619E+00
    -10.444  0.1042E+01  0.1037E+01
    -10.372  0.1143E+01  0.1120E+01
    -10.299  0.1296E+01  0.1214E+01
    -10.227  0.1398E+01  0.1315E+01
    -10.155  0.1316E+01  0.1410E+01
    -10.082  0.1078E+01  0.1488E+01
    -10.010  0.8617E+00  0.1550E+01
     -9.938  0.7835E+00  0.1607E+01
     -9.865  0.7927E+00  0.1664E+01
     -9.793  0.7616E+00  0.1720E+01
     -9.721  0.6142E+00  0.1764E+01
     -9.648  0.3802E+00  0.1791E+01
     -9.576  0.1573E+00  0.1803E+01
     -9.504  0.2147E-01  0.1804E+01
     -9.431 -0.2435E-01  0.1803E+01
     -9.359 -0.2343E-01  0.1801E+01
     -9.287 -0.1413E-01  0.1800E+01
     -9.214 -0.9934E-02  0.1799E+01
     -9.142 -0.5815E-02  0.1799E+01
     -9.070  0.1139E-01  0.1800E+01
     -8.997  0.5199E-01  0.1803E+01
     -8.925  0.1116E+00  0.1811E+01
     -8.852  0.1716E+00  0.1824E+01
     -8.780  0.2174E+00  0.1840E+01
     -8.708  0.2511E+00  0.1858E+01
     -8.635  0.2815E+00  0.1878E+01
     -8.563  0.3214E+00  0.1901E+01
     -8.491  0.4046E+00  0.1931E+01
     -8.418  0.5622E+00  0.1971E+01
     -8.346  0.7517E+00  0.2026E+01
     -8.274  0.8662E+00  0.2088E+01
     -8.201  0.8558E+00  0.2150E+01
     -8.129  0.7960E+00  0.2208E+01
     -8.057  0.8080E+00  0.2266E+01
     -7.984  0.9372E+00  0.2334E+01
     -7.912  0.1101E+01  0.2414E+01
     -7.840  0.1151E+01  0.2497E+01
     -7.767  0.1017E+01  0.2571E+01
     -7.695  0.7901E+00  0.2628E+01
     -7.623  0.6205E+00  0.2673E+01
     -7.550  0.5662E+00  0.2714E+01
     -7.478  0.5648E+00  0.2754E+01
     -7.406  0.5235E+00  0.2792E+01
     -7.333  0.4167E+00  0.2822E+01
     -7.261  0.3012E+00  0.2844E+01
     -7.189  0.2424E+00  0.2862E+01
     -7.116  0.2390E+00  0.2879E+01
     -7.044  0.2340E+00  0.2896E+01
     -6.972  0.1931E+00  0.2910E+01
     -6.899  0.1444E+00  0.2920E+01
     -6.827  0.1317E+00  0.2930E+01
     -6.755  0.1579E+00  0.2941E+01
     -6.682  0.1936E+00  0.2955E+01
     -6.610  0.2110E+00  0.2971E+01
     -6.538  0.1933E+00  0.2985E+01
     -6.465  0.1396E+00  0.2995E+01
     -6.393  0.7165E-01  0.3000E+01
     -6.321  0.1955E-01  0.3001E+01
     -6.248 -0.4044E-02  0.3001E+01
     -6.176 -0.7505E-02  0.3000E+01
     -6.104 -0.4320E-02  0.3000E+01
     -6.031 -0.1578E-02  0.3000E+01
     -5.959 -0.4093E-03  0.3000E+01
     -5.887 -0.7843E-04  0.3000E+01
     -5.814 -0.1129E-04  0.3000E+01
     -5.742 -0.1233E-05  0.3000E+01
     -5.670 -0.1026E-06  0.3000E+01
     -5.597 -0.6527E-08  0.3000E+01
     -5.525 -0.3178E-09  0.3000E+01
     -5.453 -0.1186E-10  0.3000E+01
     -5.380 -0.3432E-12  0.3000E+01
     -5.308 -0.2016E-12  0.3000E+01
     -5.235 -0.7334E-11  0.3000E+01
     -5.163 -0.2119E-09  0.3000E+01
     -5.091 -0.4676E-08  0.3000E+01
     -5.018 -0.7870E-07  0.3000E+01
     -4.946 -0.1008E-05  0.3000E+01
     -4.874 -0.9789E-05  0.3000E+01
     -4.801 -0.7174E-04  0.3000E+01
     -4.729 -0.3931E-03  0.3000E+01
     -4.657 -0.1584E-02  0.3000E+01
     -4.584 -0.4527E-02  0.3000E+01
     -4.512 -0.8282E-02  0.2999E+01
     -4.440 -0.5588E-02  0.2999E+01
     -4.367  0.1742E-01  0.3000E+01
     -4.295  0.6703E-01  0.3005E+01
     -4.223  0.1245E+00  0.3014E+01
     -4.150  0.1641E+00  0.3026E+01
     -4.078  0.2068E+00  0.3040E+01
     -4.006  0.3289E+00  0.3064E+01
     -3.933  0.5718E+00  0.3106E+01
     -3.861  0.8532E+00  0.3167E+01
     -3.789  0.1018E+01  0.3241E+01
     -3.716  0.1000E+01  0.3313E+01
     -3.644  0.9102E+00  0.3379E+01
     -3.572  0.9201E+00  0.3446E+01
     -3.499  0.1060E+01  0.3522E+01
     -3.427  0.1186E+01  0.3608E+01
     -3.355  0.1168E+01  0.3693E+01
     -3.282  0.1052E+01  0.3769E+01
     -3.210  0.9718E+00  0.3839E+01
     -3.138  0.9702E+00  0.3909E+01
     -3.065  0.9858E+00  0.3981E+01
     -2.993  0.9963E+00  0.4053E+01
     -2.921  0.1066E+01  0.4130E+01
     -2.848  0.1240E+01  0.4219E+01
     -2.776  0.1463E+01  0.4325E+01
     -2.704  0.1616E+01  0.4442E+01
     -2.631  0.1632E+01  0.4560E+01
     -2.559  0.1557E+01  0.4673E+01
     -2.487  0.1490E+01  0.4781E+01
     -2.414  0.1476E+01  0.4887E+01
     -2.342  0.1456E+01  0.4993E+01
     -2.270  0.1365E+01  0.5091E+01
     -2.197  0.1238E+01  0.5181E+01
     -2.125  0.1177E+01  0.5266E+01
     -2.053  0.1218E+01  0.5354E+01
     -1.980  0.1296E+01  0.5448E+01
     -1.908  0.1353E+01  0.5546E+01
     -1.836  0.1414E+01  0.5648E+01
     -1.763  0.1515E+01  0.5758E+01
     -1.691  0.1613E+01  0.5875E+01
     -1.619  0.1614E+01  0.5991E+01
     -1.546  0.1471E+01  0.6098E+01
     -1.474  0.1231E+01  0.6187E+01
     -1.401  0.1006E+01  0.6260E+01
     -1.329  0.9044E+00  0.6325E+01
     -1.257  0.9515E+00  0.6394E+01
     -1.184  0.1061E+01  0.6471E+01
     -1.112  0.1116E+01  0.6551E+01
     -1.040  0.1089E+01  0.6630E+01
     -0.967  0.1047E+01  0.6706E+01
     -0.895  0.1050E+01  0.6782E+01
     -0.823  0.1073E+01  0.6859E+01
     -0.750  0.1050E+01  0.6935E+01
     -0.678  0.9787E+00  0.7006E+01
     -0.606  0.9368E+00  0.7074E+01
     -0.533  0.9960E+00  0.7146E+01
     -0.461  0.1145E+01  0.7229E+01
     -0.389  0.1320E+01  0.7324E+01
     -0.316  0.1470E+01  0.7431E+01
     -0.244  0.1581E+01  0.7545E+01
     -0.172  0.1651E+01  0.7665E+01
     -0.099  0.1660E+01  0.7785E+01
     -0.027  0.1568E+01  0.7898E+01
      0.045  0.1392E+01  0.7999E+01
      0.118  0.1216E+01  0.8087E+01
      0.190  0.1110E+01  0.8167E+01
      0.262  0.1055E+01  0.8243E+01
      0.335  0.9845E+00  0.8314E+01
      0.407  0.8493E+00  0.8376E+01
      0.479  0.6464E+00  0.8423E+01
      0.552  0.4299E+00  0.8454E+01
      0.624  0.2848E+00  0.8474E+01
      0.696  0.2682E+00  0.8494E+01
      0.769  0.3738E+00  0.8521E+01
      0.841  0.5394E+00  0.8560E+01
      0.913  0.6802E+00  0.8609E+01
      0.986  0.7385E+00  0.8662E+01
      1.058  0.7135E+00  0.8714E+01
      1.130  0.6369E+00  0.8760E+01
      1.203  0.5336E+00  0.8799E+01
      1.275  0.4303E+00  0.8830E+01
      1.347  0.3826E+00  0.8858E+01
      1.420  0.4370E+00  0.8889E+01
      1.492  0.5615E+00  0.8930E+01
      1.564  0.6704E+00  0.8978E+01
      1.637  0.7299E+00  0.9031E+01
      1.709  0.7924E+00  0.9088E+01
      1.781  0.9083E+00  0.9154E+01
      1.854  0.1047E+01  0.9230E+01
      1.926  0.1134E+01  0.9312E+01
      1.998  0.1136E+01  0.9394E+01
      2.071  0.1093E+01  0.9473E+01
      2.143  0.1114E+01  0.9554E+01
      2.216  0.1308E+01  0.9648E+01
      2.288  0.1642E+01  0.9767E+01
      2.360  0.1924E+01  0.9906E+01
      2.433  0.1981E+01  0.1005E+02
      2.505  0.1831E+01  0.1018E+02
      2.577  0.1614E+01  0.1030E+02
      2.650  0.1414E+01  0.1040E+02
      2.722  0.1245E+01  0.1049E+02
      2.794  0.1147E+01  0.1057E+02
      2.867  0.1167E+01  0.1066E+02
      2.939  0.1243E+01  0.1075E+02
      3.011  0.1238E+01  0.1084E+02
      3.084  0.1125E+01  0.1092E+02
      3.156  0.1055E+01  0.1100E+02
      3.228  0.1164E+01  0.1108E+02
      3.301  0.1389E+01  0.1118E+02
      3.373  0.1529E+01  0.1129E+02
      3.445  0.1446E+01  0.1140E+02
      3.518  0.1174E+01  0.1148E+02
      3.590  0.8552E+00  0.1154E+02
      3.662  0.6155E+00  0.1159E+02
      3.735  0.4962E+00  0.1162E+02
      3.807  0.4854E+00  0.1166E+02
      3.879  0.5648E+00  0.1170E+02
      3.952  0.6954E+00  0.1175E+02
      4.024  0.8004E+00  0.1181E+02
      4.096  0.8098E+00  0.1187E+02
      4.169  0.7150E+00  0.1192E+02
      4.241  0.5689E+00  0.1196E+02
      4.313  0.4387E+00  0.1199E+02
      4.386  0.3629E+00  0.1202E+02
      4.458  0.3502E+00  0.1204E+02
      4.530  0.3976E+00  0.1207E+02
      4.603  0.4858E+00  0.1211E+02
      4.675  0.5789E+00  0.1215E+02
      4.747  0.6580E+00  0.1220E+02
      4.820  0.7446E+00  0.1225E+02
      4.892  0.8622E+00  0.1231E+02
      4.964  0.9868E+00  0.1238E+02
      5.037  0.1061E+01  0.1246E+02
      5.109  0.1047E+01  0.1254E+02
      5.181  0.9406E+00  0.1260E+02
      5.254  0.7690E+00  0.1266E+02
      5.326  0.5820E+00  0.1270E+02
      5.398  0.4304E+00  0.1273E+02
      5.471  0.3304E+00  0.1276E+02
      5.543  0.2602E+00  0.1278E+02
      5.615  0.1918E+00  0.1279E+02
      5.688  0.1170E+00  0.1280E+02
      5.760  0.4967E-01  0.1280E+02
      5.833  0.7292E-02  0.1280E+02
      5.905 -0.7903E-02  0.1280E+02
      5.977 -0.7583E-02  0.1280E+02
      6.050 -0.3699E-02  0.1280E+02
      6.122 -0.1212E-02  0.1280E+02
      6.194 -0.2859E-03  0.1280E+02
      6.267 -0.4993E-04  0.1280E+02
      6.339 -0.6546E-05  0.1280E+02
      6.411 -0.6492E-06  0.1280E+02
      6.484 -0.4894E-07  0.1280E+02
      6.556 -0.2813E-08  0.1280E+02
      6.628 -0.1236E-09  0.1280E+02
      6.701 -0.4153E-11  0.1280E+02
      6.773 -0.1070E-12  0.1280E+02
      6.845 -0.2115E-14  0.1280E+02
      6.918 -0.2984E-16  0.1280E+02
      6.990  0.0000E+00  0.1280E+02
      7.062  0.0000E+00  0.1280E+02
      7.135  0.0000E+00  0.1280E+02
      7.207  0.0000E+00  0.1280E+02
      7.279  0.0000E+00  0.1280E+02
      7.352  0.0000E+00  0.1280E+02
      7.424  0.0000E+00  0.1280E+02
      7.496  0.0000E+00  0.1280E+02
      7.569  0.0000E+00  0.1280E+02
      7.641  0.0000E+00  0.1280E+02
      7.64101463    -14.06097459  301      0.44115482      1.00000000
    -14.061  0.0000E+00  0.0000E+00  0.0000E+00  0.0000E+00  0.0000E+00  0.0000E+00  0.0000E+00  0.0000E+00  0.0000E+00
    -13.989  0.0000E+00  0.0000E+00  0.0000E+00  0.0000E+00  0.0000E+00  0.0000E+00  0.0000E+00  0.0000E+00  0.0000E+00
    -13.916  0.0000E+00  0.0000E+00  0.0000E+00  0.0000E+00  0.0000E+00  0.0000E+00  0.0000E+00  0.0000E+00  0.0000E+00
    -13.844  0.0000E+00  0.0000E+00  0.0000E+00  0.0000E+00  0.0000E+00  0.0000E+00  0.0000E+00  0.0000E+00  0.0000E+00
    -13.772  0.0000E+00  0.0000E+00  0.0000E+00  0.0000E+00  0.0000E+00  0.0000E+00  0.0000E+00  0.0000E+00  0.0000E+00
    -13.699 -0.2217E-30 -0.3443E-32 -0.5843E-32 -0.1948E-32 -0.6432E-35 -0.1929E-34 -0.1967E-34 -0.1111E-33 -0.2018E-34
    -13.627 -0.8082E-28 -0.1240E-29 -0.2134E-29 -0.7229E-30 -0.3079E-32 -0.7055E-32 -0.7355E-32 -0.4014E-31 -0.7386E-32
    -13.555 -0.2010E-25 -0.3075E-27 -0.5309E-27 -0.1802E-27 -0.7914E-30 -0.1752E-29 -0.1834E-29 -0.9963E-29 -0.1838E-29
    -13.482 -0.3863E-23 -0.5890E-25 -0.1021E-24 -0.3474E-25 -0.1577E-27 -0.3359E-27 -0.3537E-27 -0.1910E-26 -0.3533E-27
    -13.410 -0.5738E-21 -0.8717E-23 -0.1516E-22 -0.5177E-23 -0.2436E-25 -0.4974E-25 -0.5271E-25 -0.2829E-24 -0.5251E-25
    -13.338 -0.6594E-19 -0.9973E-21 -0.1743E-20 -0.5972E-21 -0.2919E-23 -0.5695E-23 -0.6080E-23 -0.3241E-22 -0.6037E-23
    -13.265 -0.5867E-17 -0.8829E-19 -0.1552E-18 -0.5336E-19 -0.2716E-21 -0.5043E-21 -0.5431E-21 -0.2872E-20 -0.5374E-21
    -13.193 -0.3951E-15 -0.5907E-17 -0.1045E-16 -0.3610E-17 -0.1913E-19 -0.3369E-19 -0.3670E-19 -0.1925E-18 -0.3620E-19
    -13.121 -0.2090E-13 -0.3106E-15 -0.5532E-15 -0.1919E-15 -0.1066E-17 -0.1774E-17 -0.1952E-17 -0.1014E-16 -0.1916E-17
    -13.048 -0.8634E-12 -0.1274E-13 -0.2287E-13 -0.7974E-14 -0.4641E-16 -0.7276E-16 -0.8104E-16 -0.4164E-15 -0.7920E-16
    -12.976 -0.2765E-10 -0.4046E-12 -0.7329E-12 -0.2570E-12 -0.1570E-14 -0.2312E-14 -0.2610E-14 -0.1325E-13 -0.2538E-14
    -12.904 -0.6866E-09 -0.9957E-11 -0.1821E-10 -0.6423E-11 -0.4129E-13 -0.5695E-13 -0.6522E-13 -0.3269E-12 -0.6307E-13
    -12.831 -0.1320E-07 -0.1897E-09 -0.3505E-09 -0.1245E-09 -0.8437E-12 -0.1087E-11 -0.1264E-11 -0.6243E-11 -0.1214E-11
    -12.759 -0.1963E-06 -0.2792E-08 -0.5215E-08 -0.1866E-08 -0.1338E-10 -0.1606E-10 -0.1895E-10 -0.9214E-10 -0.1807E-10
    -12.687 -0.2250E-05 -0.3166E-07 -0.5982E-07 -0.2158E-07 -0.1643E-09 -0.1832E-09 -0.2196E-09 -0.1048E-08 -0.2073E-09
    -12.614 -0.1977E-04 -0.2753E-06 -0.5264E-06 -0.1918E-06 -0.1560E-08 -0.1608E-08 -0.1957E-08 -0.9134E-08 -0.1826E-08
    -12.542 -0.1323E-03 -0.1820E-05 -0.3527E-05 -0.1300E-05 -0.1140E-07 -0.1079E-07 -0.1333E-07 -0.6059E-07 -0.1225E-07
    -12.469 -0.6655E-03 -0.9037E-05 -0.1778E-04 -0.6651E-05 -0.6376E-07 -0.5490E-07 -0.6876E-07 -0.3019E-06 -0.6185E-07
    -12.397 -0.2461E-02 -0.3288E-04 -0.6594E-04 -0.2519E-04 -0.2707E-06 -0.2080E-06 -0.2640E-06 -0.1103E-05 -0.2302E-06
    -12.325 -0.6369E-02 -0.8316E-04 -0.1715E-03 -0.6782E-04 -0.8569E-06 -0.5672E-06 -0.7285E-06 -0.2809E-05 -0.6030E-06
    -12.252 -0.9953E-02 -0.1236E-03 -0.2714E-03 -0.1160E-03 -0.1938E-05 -0.1014E-05 -0.1317E-05 -0.4241E-05 -0.9714E-06
    -12.180 -0.2016E-02 -0.2671E-05 -0.6792E-04 -0.6179E-04 -0.2704E-05 -0.7310E-06 -0.9642E-06 -0.3419E-06 -0.3131E-06
    -12.108  0.3550E-01  0.5084E-03  0.9273E-03  0.2937E-03 -0.3412E-06  0.1916E-05  0.2499E-05  0.1667E-04  0.3093E-05
    -12.035  0.1088E+00  0.1457E-02  0.2902E-02  0.1076E-02  0.9553E-05  0.8278E-05  0.1087E-04  0.4875E-04  0.1001E-04
    -11.963  0.1934E+00  0.2475E-02  0.5227E-02  0.2120E-02  0.2951E-04  0.1764E-04  0.2312E-04  0.8390E-04  0.1840E-04
    -11.891  0.2468E+00  0.2992E-02  0.6781E-02  0.3022E-02  0.5673E-04  0.2711E-04  0.3534E-04  0.1032E-03  0.2442E-04
    -11.818  0.2485E+00  0.2769E-02  0.7000E-02  0.3519E-02  0.8591E-04  0.3428E-04  0.4440E-04  0.9822E-04  0.2607E-04
    -11.746  0.2160E+00  0.2070E-02  0.6335E-02  0.3731E-02  0.1151E-03  0.3914E-04  0.5104E-04  0.7763E-04  0.2483E-04
    -11.674  0.1787E+00  0.1323E-02  0.5544E-02  0.3867E-02  0.1416E-03  0.4209E-04  0.5657E-04  0.5514E-04  0.2307E-04
    -11.601  0.1493E+00  0.8415E-03  0.4881E-02  0.3896E-02  0.1587E-03  0.4543E-04  0.6008E-04  0.4101E-04  0.2192E-04
    -11.529  0.1301E+00  0.9944E-03  0.4334E-02  0.3853E-02  0.1747E-03  0.6438E-04  0.6555E-04  0.5037E-04  0.2387E-04
    -11.457  0.1304E+00  0.2276E-02  0.4153E-02  0.4134E-02  0.2188E-03  0.1243E-03  0.8455E-04  0.1045E-03  0.3391E-04
    -11.384  0.1524E+00  0.4641E-02  0.4443E-02  0.4850E-02  0.2958E-03  0.2250E-03  0.1183E-03  0.2013E-03  0.5188E-04
    -11.312  0.1737E+00  0.6940E-02  0.4683E-02  0.5410E-02  0.3625E-03  0.3194E-03  0.1475E-03  0.2933E-03  0.6796E-04
    -11.240  0.1703E+00  0.7774E-02  0.4471E-02  0.5524E-02  0.3937E-03  0.3606E-03  0.1580E-03  0.3276E-03  0.7361E-04
    -11.167  0.1489E+00  0.6953E-02  0.4254E-02  0.5920E-02  0.4320E-03  0.3581E-03  0.1638E-03  0.3042E-03  0.7302E-04
    -11.095  0.1321E+00  0.5529E-02  0.4566E-02  0.7184E-02  0.5173E-03  0.3545E-03  0.1835E-03  0.2666E-03  0.7509E-04
    -11.023  0.1235E+00  0.4449E-02  0.5074E-02  0.8672E-02  0.6166E-03  0.3633E-03  0.2103E-03  0.2439E-03  0.8008E-04
    -10.950  0.1091E+00  0.3873E-02  0.5213E-02  0.9730E-02  0.7001E-03  0.3804E-03  0.2335E-03  0.2378E-03  0.8527E-04
    -10.878  0.8710E-01  0.3731E-02  0.5321E-02  0.1106E-01  0.8234E-03  0.4343E-03  0.2669E-03  0.2548E-03  0.9642E-04
    -10.806  0.7258E-01  0.4033E-02  0.6065E-02  0.1320E-01  0.1016E-02  0.5472E-03  0.3185E-03  0.3006E-03  0.1174E-03
    -10.733  0.7024E-01  0.4378E-02  0.7003E-02  0.1472E-01  0.1153E-02  0.6524E-03  0.3521E-03  0.3423E-03  0.1341E-03
    -10.661  0.6494E-01  0.3982E-02  0.6827E-02  0.1361E-01  0.1077E-02  0.6342E-03  0.3217E-03  0.3234E-03  0.1264E-03
    -10.589  0.4549E-01  0.2586E-02  0.5019E-02  0.9790E-02  0.7776E-03  0.4577E-03  0.2280E-03  0.2281E-03  0.9142E-04
    -10.516  0.2139E-01  0.1206E-02  0.2582E-02  0.5133E-02  0.4099E-03  0.2372E-03  0.1184E-03  0.1160E-03  0.4815E-04
    -10.444  0.1222E-01  0.1949E-02  0.1215E-02  0.1842E-02  0.1742E-03  0.1857E-03  0.5203E-04  0.9594E-04  0.2360E-04
    -10.372  0.2997E-01  0.6385E-02  0.2000E-02  0.1052E-02  0.1872E-03  0.4568E-03  0.6180E-04  0.2452E-03  0.3402E-04
    -10.299  0.6787E-01  0.1306E-01  0.4449E-02  0.2292E-02  0.3941E-03  0.9508E-03  0.1285E-03  0.5086E-03  0.7033E-04
    -10.227  0.9966E-01  0.1740E-01  0.6583E-02  0.3913E-02  0.5922E-03  0.1307E-02  0.1889E-03  0.6968E-03  0.1010E-03
    -10.155  0.9910E-01  0.1585E-01  0.6527E-02  0.4341E-02  0.5990E-03  0.1223E-02  0.1882E-03  0.6533E-03  0.9856E-04
    -10.082  0.6689E-01  0.9800E-02  0.4349E-02  0.3289E-02  0.4150E-03  0.7721E-03  0.1295E-03  0.4199E-03  0.6558E-04
    -10.010  0.2885E-01  0.3797E-02  0.1794E-02  0.1713E-02  0.1914E-03  0.3000E-03  0.6055E-04  0.1759E-03  0.2811E-04
     -9.938  0.6622E-02  0.6307E-03  0.2865E-03  0.6023E-03  0.5253E-04  0.4193E-04  0.1883E-04  0.4156E-04  0.6063E-05
     -9.865  0.1340E-02 -0.1453E-03 -0.1100E-03  0.1647E-03  0.6501E-05 -0.2138E-04  0.5122E-05  0.4879E-05 -0.3899E-06
     -9.793  0.3224E-02 -0.8114E-04 -0.2758E-04  0.8566E-04  0.2143E-05 -0.1085E-04  0.3093E-05  0.3778E-05 -0.3161E-06
     -9.721  0.4900E-02 -0.7679E-05  0.7606E-04  0.7615E-04  0.3149E-05  0.8825E-06  0.2226E-05  0.3719E-05  0.2754E-06
     -9.648  0.4392E-02 -0.1765E-04  0.8877E-04  0.4768E-04  0.1465E-05  0.2057E-05  0.8375E-06  0.1004E-05  0.2015E-06
     -9.576  0.2563E-02 -0.2976E-04  0.5150E-04  0.1471E-04 -0.4189E-06  0.2216E-07 -0.1132E-06 -0.8058E-06 -0.3403E-07
     -9.504  0.7507E-03 -0.2302E-04  0.1394E-04 -0.3607E-05 -0.9819E-06 -0.9730E-06 -0.3677E-06 -0.1035E-05 -0.1226E-06
     -9.431 -0.6173E-03 -0.1321E-04 -0.5567E-05 -0.7884E-05 -0.7173E-06 -0.8705E-06 -0.2811E-06 -0.6507E-06 -0.1005E-06
     -9.359 -0.2774E-02 -0.1369E-04 -0.1486E-04 -0.8064E-05 -0.4119E-06 -0.5677E-06 -0.1898E-06 -0.3224E-06 -0.8077E-07
     -9.287 -0.8475E-02 -0.3260E-04 -0.3188E-04 -0.1391E-04 -0.5110E-06 -0.6094E-06 -0.2778E-06 -0.2277E-06 -0.1468E-06
     -9.214 -0.1867E-01 -0.6732E-04 -0.6468E-04 -0.3127E-04 -0.1384E-05 -0.1139E-05 -0.6552E-06 -0.3567E-06 -0.3469E-06
     -9.142 -0.2229E-01 -0.6834E-04 -0.7652E-04 -0.5055E-04 -0.3161E-05 -0.1650E-05 -0.1186E-05 -0.5436E-06 -0.5756E-06
     -9.070  0.1433E-01  0.9089E-04  0.4773E-04 -0.2110E-04 -0.3954E-05 -0.2502E-06 -0.8585E-06 -0.2189E-06 -0.2719E-06
     -8.997  0.1331E+00  0.5379E-03  0.4526E-03  0.1542E-03  0.2350E-05  0.6185E-05  0.2593E-05  0.1642E-05  0.1665E-05
     -8.925  0.3319E+00  0.1211E-02  0.1134E-02  0.5344E-03  0.2243E-04  0.1897E-04  0.1092E-04  0.5604E-05  0.5933E-05
     -8.852  0.5225E+00  0.1773E-02  0.1794E-02  0.9938E-03  0.5182E-04  0.3323E-04  0.2158E-04  0.1022E-04  0.1113E-04
     -8.780  0.5837E+00  0.1836E-02  0.2013E-02  0.1258E-02  0.7357E-04  0.3989E-04  0.2830E-04  0.1252E-04  0.1418E-04
     -8.708  0.4987E+00  0.1348E-02  0.1713E-02  0.1255E-02  0.8302E-04  0.3721E-04  0.2984E-04  0.1209E-04  0.1442E-04
     -8.635  0.3966E+00  0.7071E-03  0.1310E-02  0.1289E-02  0.1028E-03  0.3711E-04  0.3447E-04  0.1334E-04  0.1550E-04
     -8.563  0.3911E+00  0.4446E-03  0.1190E-02  0.1569E-02  0.1473E-03  0.5179E-04  0.4764E-04  0.2087E-04  0.1975E-04
     -8.491  0.4395E+00  0.7785E-03  0.1221E-02  0.1812E-02  0.1913E-03  0.7843E-04  0.6183E-04  0.3418E-04  0.2356E-04
     -8.418  0.4549E+00  0.1438E-02  0.1109E-02  0.1757E-02  0.2101E-03  0.1053E-03  0.6991E-04  0.4953E-04  0.2368E-04
     -8.346  0.4586E+00  0.1895E-02  0.9373E-03  0.1702E-02  0.2221E-03  0.1262E-03  0.7791E-04  0.6391E-04  0.2345E-04
     -8.274  0.5038E+00  0.1922E-02  0.9483E-03  0.1990E-02  0.2495E-03  0.1421E-03  0.9148E-04  0.7557E-04  0.2645E-04
     -8.201  0.5666E+00  0.1939E-02  0.1077E-02  0.2359E-02  0.2742E-03  0.1603E-03  0.1031E-03  0.8461E-04  0.2963E-04
     -8.129  0.6274E+00  0.2548E-02  0.1097E-02  0.2367E-02  0.2754E-03  0.1937E-03  0.1056E-03  0.9315E-04  0.2902E-04
     -8.057  0.7402E+00  0.3872E-02  0.1001E-02  0.2085E-02  0.2716E-03  0.2526E-03  0.1030E-03  0.1017E-03  0.2619E-04
     -7.984  0.9187E+00  0.5568E-02  0.9297E-03  0.1850E-02  0.2857E-03  0.3308E-03  0.9974E-04  0.1071E-03  0.2405E-04
     -7.912  0.1045E+01  0.6991E-02  0.8976E-03  0.1709E-02  0.2996E-03  0.3941E-03  0.9151E-04  0.1051E-03  0.2182E-04
     -7.840  0.9681E+00  0.7169E-02  0.7900E-03  0.1462E-02  0.2720E-03  0.3884E-03  0.7314E-04  0.9095E-04  0.1767E-04
     -7.767  0.6755E+00  0.5549E-02  0.5728E-03  0.1048E-02  0.1926E-03  0.2908E-03  0.4780E-04  0.6511E-04  0.1237E-04
     -7.695  0.3286E+00  0.3030E-02  0.3734E-03  0.6662E-03  0.1048E-03  0.1573E-03  0.2614E-04  0.3948E-04  0.8696E-05
     -7.623  0.1084E+00  0.1289E-02  0.3521E-03  0.5542E-03  0.6711E-04  0.7812E-04  0.1812E-04  0.3047E-04  0.8682E-05
     -7.550  0.5645E-01  0.1003E-02  0.5141E-03  0.7204E-03  0.9090E-04  0.8298E-04  0.2485E-04  0.4135E-04  0.1197E-04
     -7.478  0.8580E-01  0.1409E-02  0.6724E-03  0.9056E-03  0.1274E-03  0.1184E-03  0.3748E-04  0.5745E-04  0.1608E-04
     -7.406  0.1025E+00  0.1502E-02  0.6422E-03  0.8481E-03  0.1238E-03  0.1205E-03  0.4456E-04  0.6190E-04  0.1797E-04
     -7.333  0.8373E-01  0.1102E-02  0.4699E-03  0.5835E-03  0.8375E-04  0.8556E-04  0.4136E-04  0.5273E-04  0.1632E-04
     -7.261  0.6081E-01  0.6943E-03  0.3889E-03  0.3896E-03  0.5527E-04  0.5793E-04  0.3204E-04  0.4173E-04  0.1265E-04
     -7.189  0.5974E-01  0.6365E-03  0.5228E-03  0.4314E-03  0.6692E-04  0.6608E-04  0.2362E-04  0.3894E-04  0.9579E-05
     -7.116  0.7063E-01  0.7924E-03  0.7176E-03  0.5740E-03  0.9510E-04  0.9043E-04  0.1882E-04  0.4180E-04  0.7935E-05
     -7.044  0.6993E-01  0.8278E-03  0.7513E-03  0.5932E-03  0.1005E-03  0.9544E-04  0.1536E-04  0.4079E-04  0.6698E-05
     -6.972  0.5679E-01  0.6387E-03  0.6554E-03  0.4762E-03  0.7907E-04  0.7636E-04  0.1126E-04  0.3316E-04  0.5805E-05
     -6.899  0.5172E-01  0.3999E-03  0.6784E-03  0.4005E-03  0.5955E-04  0.5894E-04  0.7800E-05  0.2639E-04  0.6845E-05
     -6.827  0.6507E-01  0.2789E-03  0.9540E-03  0.4687E-03  0.5859E-04  0.6021E-04  0.6549E-05  0.2734E-04  0.1068E-04
     -6.755  0.8652E-01  0.2588E-03  0.1385E-02  0.6124E-03  0.6421E-04  0.7144E-04  0.6601E-05  0.3467E-04  0.1643E-04
     -6.682  0.1024E+00  0.2460E-03  0.1808E-02  0.7289E-03  0.6096E-04  0.7801E-04  0.6261E-05  0.4299E-04  0.2238E-04
     -6.610  0.1053E+00  0.2061E-03  0.2049E-02  0.7634E-03  0.4842E-04  0.7509E-04  0.5181E-05  0.4750E-04  0.2596E-04
     -6.538  0.9081E-01  0.1538E-03  0.1923E-02  0.6796E-03  0.3321E-04  0.6282E-04  0.3839E-05  0.4421E-04  0.2433E-04
     -6.465  0.6111E-01  0.9962E-04  0.1395E-02  0.4782E-03  0.1913E-04  0.4274E-04  0.2468E-05  0.3226E-04  0.1730E-04
     -6.393  0.2855E-01  0.4887E-04  0.7097E-03  0.2380E-03  0.7946E-05  0.2088E-04  0.1196E-05  0.1666E-04  0.8492E-05
     -6.321  0.6231E-02  0.1233E-04  0.1897E-03  0.6090E-04  0.1197E-05  0.5148E-05  0.2932E-06  0.4599E-05  0.2090E-05
     -6.248 -0.2644E-02 -0.4000E-05 -0.4119E-04 -0.1605E-04 -0.1221E-05 -0.1602E-05 -0.1032E-06 -0.8891E-06 -0.6042E-06
     -6.176 -0.3333E-02 -0.6032E-05 -0.7358E-04 -0.2579E-04 -0.1199E-05 -0.2381E-05 -0.1490E-06 -0.1717E-05 -0.9100E-06
     -6.104 -0.1770E-02 -0.3384E-05 -0.4205E-04 -0.1449E-04 -0.5983E-06 -0.1320E-05 -0.8281E-07 -0.9953E-06 -0.5026E-06
     -6.031 -0.6206E-03 -0.1221E-05 -0.1533E-04 -0.5240E-05 -0.2021E-06 -0.4735E-06 -0.2973E-07 -0.3652E-06 -0.1800E-06
     -5.959 -0.1571E-03 -0.3135E-06 -0.3980E-05 -0.1353E-05 -0.4960E-07 -0.1215E-06 -0.7611E-08 -0.9514E-07 -0.4625E-07
     -5.887 -0.2963E-04 -0.5947E-07 -0.7644E-06 -0.2588E-06 -0.9100E-08 -0.2309E-07 -0.1441E-08 -0.1830E-07 -0.8822E-08
     -5.814 -0.4224E-05 -0.8476E-08 -0.1104E-06 -0.3727E-07 -0.1265E-08 -0.3306E-08 -0.2050E-09 -0.2644E-08 -0.1269E-08
     -5.742 -0.4584E-06 -0.9162E-09 -0.1210E-07 -0.4073E-08 -0.1341E-09 -0.3594E-09 -0.2214E-10 -0.2895E-09 -0.1386E-09
     -5.670 -0.3799E-07 -0.7550E-10 -0.1010E-08 -0.3393E-09 -0.1089E-10 -0.2980E-10 -0.1824E-11 -0.2414E-10 -0.1155E-10
     -5.597 -0.2411E-08 -0.4758E-11 -0.6440E-10 -0.2160E-10 -0.6783E-12 -0.1889E-11 -0.1149E-12 -0.1538E-11 -0.7357E-12
     -5.525 -0.1172E-09 -0.2297E-12 -0.3143E-11 -0.1053E-11 -0.3247E-13 -0.9175E-13 -0.5546E-14 -0.7496E-13 -0.3588E-13
     -5.453 -0.4371E-11 -0.8504E-14 -0.1175E-12 -0.3934E-13 -0.1195E-14 -0.3416E-14 -0.2054E-15 -0.2799E-14 -0.1341E-14
     -5.380 -0.1251E-12 -0.2647E-15 -0.3424E-14 -0.1283E-14 -0.3445E-16 -0.9812E-16 -0.7164E-17 -0.8080E-16 -0.3907E-16
     -5.308 -0.3172E-14 -0.1146E-14 -0.2758E-14 -0.7717E-14 -0.3325E-16 -0.2865E-16 -0.6564E-16 -0.3507E-16 -0.3298E-16
     -5.235 -0.1612E-13 -0.4304E-13 -0.1013E-12 -0.2905E-12 -0.1231E-14 -0.1002E-14 -0.2474E-14 -0.1260E-14 -0.1217E-14
     -5.163 -0.4637E-12 -0.1241E-11 -0.2926E-11 -0.8387E-11 -0.3565E-13 -0.2894E-13 -0.7146E-13 -0.3644E-13 -0.3526E-13
     -5.091 -0.1022E-10 -0.2735E-10 -0.6451E-10 -0.1849E-09 -0.7893E-12 -0.6390E-12 -0.1576E-11 -0.8056E-12 -0.7814E-12
     -5.018 -0.1720E-09 -0.4596E-09 -0.1084E-08 -0.3109E-08 -0.1334E-10 -0.1077E-10 -0.2651E-10 -0.1359E-10 -0.1322E-10
     -4.946 -0.2207E-08 -0.5881E-08 -0.1387E-07 -0.3977E-07 -0.1717E-09 -0.1382E-09 -0.3393E-09 -0.1746E-09 -0.1704E-09
     -4.874 -0.2155E-07 -0.5717E-07 -0.1345E-06 -0.3857E-06 -0.1679E-08 -0.1347E-08 -0.3293E-08 -0.1703E-08 -0.1670E-08
     -4.801 -0.1600E-06 -0.4212E-06 -0.9842E-06 -0.2823E-05 -0.1242E-07 -0.9947E-08 -0.2413E-07 -0.1256E-07 -0.1238E-07
     -4.729 -0.9021E-06 -0.2345E-05 -0.5393E-05 -0.1546E-04 -0.6886E-07 -0.5537E-07 -0.1323E-06 -0.6944E-07 -0.6884E-07
     -4.657 -0.3864E-05 -0.9868E-05 -0.2183E-04 -0.6249E-04 -0.2827E-06 -0.2309E-06 -0.5360E-06 -0.2841E-06 -0.2833E-06
     -4.584 -0.1266E-04 -0.3171E-04 -0.6367E-04 -0.1814E-03 -0.8370E-06 -0.7185E-06 -0.1561E-05 -0.8391E-06 -0.8380E-06
     -4.512 -0.3262E-04 -0.8185E-04 -0.1276E-03 -0.3560E-03 -0.1696E-05 -0.1687E-05 -0.3085E-05 -0.1706E-05 -0.1666E-05
     -4.440 -0.7135E-04 -0.1948E-03 -0.1585E-03 -0.3931E-03 -0.2059E-05 -0.3241E-05 -0.3522E-05 -0.2195E-05 -0.1774E-05
     -4.367 -0.1490E-03 -0.5015E-03 -0.1018E-03  0.6446E-05 -0.8423E-06 -0.6302E-05 -0.6504E-06 -0.1938E-05  0.6009E-06
     -4.295 -0.2982E-03 -0.1301E-02 -0.1008E-03  0.8387E-03  0.8212E-06 -0.1376E-04  0.4154E-05 -0.4831E-05  0.5712E-05
     -4.223 -0.4289E-03 -0.2622E-02 -0.3861E-03  0.2062E-02  0.2208E-06 -0.2429E-04  0.7549E-05 -0.1930E-04  0.1186E-04
     -4.150  0.5899E-04 -0.2590E-02 -0.5035E-04  0.5768E-02  0.5953E-05 -0.1037E-04  0.2652E-04 -0.3657E-04  0.2382E-04
     -4.078  0.2560E-02  0.4552E-02  0.4623E-02  0.1748E-01  0.5440E-04  0.1008E-03  0.1234E-03  0.1451E-04  0.6175E-04
     -4.006  0.8497E-02  0.2693E-01  0.1910E-01  0.4137E-01  0.1991E-03  0.3951E-03  0.3782E-03  0.2744E-03  0.1491E-03
     -3.933  0.1731E-01  0.6711E-01  0.4501E-01  0.7315E-01  0.4666E-03  0.8788E-03  0.8028E-03  0.8348E-03  0.2890E-03
     -3.861  0.2527E-01  0.1133E+00  0.7478E-01  0.1016E+00  0.8167E-03  0.1411E-02  0.1283E-02  0.1559E-02  0.4603E-03
     -3.789  0.2790E-01  0.1427E+00  0.9466E-01  0.1172E+00  0.1138E-02  0.1760E-02  0.1617E-02  0.2093E-02  0.6204E-03
     -3.716  0.2453E-01  0.1409E+00  0.9620E-01  0.1163E+00  0.1317E-02  0.1788E-02  0.1661E-02  0.2186E-02  0.7128E-03
     -3.644  0.1950E-01  0.1191E+00  0.8466E-01  0.1044E+00  0.1394E-02  0.1649E-02  0.1477E-02  0.1951E-02  0.7299E-03
     -3.572  0.1755E-01  0.1070E+00  0.7333E-01  0.9622E-01  0.1626E-02  0.1738E-02  0.1326E-02  0.1724E-02  0.7619E-03
     -3.499  0.1923E-01  0.1227E+00  0.6981E-01  0.1038E+00  0.2198E-02  0.2290E-02  0.1392E-02  0.1694E-02  0.8750E-03
     -3.427  0.2178E-01  0.1523E+00  0.7012E-01  0.1185E+00  0.2865E-02  0.3007E-02  0.1549E-02  0.1762E-02  0.9688E-03
     -3.355  0.2299E-01  0.1648E+00  0.6642E-01  0.1197E+00  0.3113E-02  0.3296E-02  0.1525E-02  0.1721E-02  0.9114E-03
     -3.282  0.2261E-01  0.1463E+00  0.5787E-01  0.1025E+00  0.2740E-02  0.2914E-02  0.1258E-02  0.1505E-02  0.7794E-03
     -3.210  0.2129E-01  0.1112E+00  0.5154E-01  0.8380E-01  0.2066E-02  0.2185E-02  0.9487E-03  0.1233E-02  0.7773E-03
     -3.138  0.1964E-01  0.8075E-01  0.5277E-01  0.7869E-01  0.1542E-02  0.1580E-02  0.7886E-03  0.1049E-02  0.9370E-03
     -3.065  0.1764E-01  0.6235E-01  0.5872E-01  0.8548E-01  0.1367E-02  0.1282E-02  0.7891E-03  0.9641E-03  0.1070E-02
     -2.993  0.1503E-01  0.5189E-01  0.6365E-01  0.9644E-01  0.1479E-02  0.1210E-02  0.8678E-03  0.9070E-03  0.1024E-02
     -2.921  0.1283E-01  0.4715E-01  0.6674E-01  0.1100E+00  0.1730E-02  0.1244E-02  0.9654E-03  0.8532E-03  0.8629E-03
     -2.848  0.1374E-01  0.5063E-01  0.7220E-01  0.1291E+00  0.2035E-02  0.1356E-02  0.1079E-02  0.8452E-03  0.7631E-03
     -2.776  0.1971E-01  0.6143E-01  0.8350E-01  0.1545E+00  0.2424E-02  0.1553E-02  0.1242E-02  0.9154E-03  0.8111E-03