   30   30   20    1
  0.6786351E+02  0.4330646E-09  0.3133730E-08  0.1732258E-08  0.5000000E-15
  1.000000000000000E-004
  CAR 
 Tetradymite Slab                        
    168     28    128
 
  0.0000000E+00  0.0000000E+00  0.0000000E+00  0.1388889E-01
    1      -12.060969   1.000000
    2      -11.998020   1.000000
    3      -11.918832   1.000000
    4      -11.763849   1.000000
    5      -11.484190   1.000000
    6      -11.433177   1.000000
    7      -11.354847   1.000000
    8      -11.130646   1.000000
    9      -11.026096   1.000000
   10      -10.932104   1.000000
   11      -10.613316   1.000000
   12      -10.585793   1.000000
   13      -10.308105   1.000000
   14      -10.273523   1.000000
   15      -10.251587   1.000000
   16      -10.167079   1.000000
   17      -10.033033   1.000000
   18       -9.962816   1.000000
   19       -8.295710   1.000000
   20       -7.921224   1.000000
   21       -7.878636   1.000000
   22       -7.854176   1.000000
   23       -7.839531   1.000000
   24       -7.782003   1.000000
   25       -7.578781   1.000000
   26       -7.407438   1.000000
   27       -7.277610   1.000000
   28       -7.031377   1.000000
   29       -6.583794   1.000000
   30       -6.497588   1.000000
   31       -3.888671   1.000000
   32       -3.859758   1.000000
   33       -3.547546   1.000000
   34       -3.254591   1.000000
   35       -3.082312   1.000000
   36       -3.001166   1.000000
   37       -2.739951   1.000000
   38       -2.668712   1.000000
   39       -2.648969   1.000000
   40       -2.596720   1.000000
   41       -2.530153   1.000000
   42       -2.364026   1.000000
   43       -2.355601   1.000000
   44       -2.297946   1.000000
   45       -2.144917   1.000000
   46       -2.065226   1.000000
   47       -2.057363   1.000000
   48       -1.998441   1.000000
   49       -1.981376   1.000000
   50       -1.944525   1.000000
   51       -1.901290   1.000000
   52       -1.763285   1.000000
   53       -1.735343   1.000000
   54       -1.685041   1.000000
   55       -1.679539   1.000000
   56       -1.637660   1.000000
   57       -1.609877   1.000000
   58       -1.536088   1.000000
   59       -1.535693   1.000000
   60       -1.444682   1.000000
   61       -1.310646   1.000000
   62       -1.254621   1.000000
   63       -1.233022   1.000000
   64       -1.178352   1.000000
   65       -1.081190   1.000000
   66       -1.008527   1.000000
   67       -0.958494   1.000000
   68       -0.600702   1.000000
   69       -0.543065   1.000000
   70       -0.424328   1.000000
   71       -0.336139   1.000000
   72       -0.314514   1.000001
   73       -0.294058   1.000001
   74       -0.203867   1.000025
   75       -0.178045   1.000054
   76       -0.114023   1.000309
   77       -0.053337   1.001308
   78        0.000336   1.003915
   79        0.022839   1.005881
   80        0.123685   1.023651
   81        0.174348   1.033879
   82        0.276912   0.995277
   83        0.312635   0.938215
   84        0.343047   0.864858
   85        0.503006   0.251644
   86        0.820751  -0.010960
   87        0.887055  -0.003556
   88        0.971549  -0.000572
   89        1.104711  -0.000014
   90        1.199633  -0.000001
   91        1.442622  -0.000000
   92        1.465871  -0.000000
   93        1.559788  -0.000000
   94        1.789186  -0.000000
   95        1.814877  -0.000000
   96        1.882085  -0.000000
   97        1.972860  -0.000000
   98        1.976430  -0.000000
   99        2.130018  -0.000000
  100        2.208605  -0.000000
  101        2.236529  -0.000000
  102        2.255204  -0.000000
  103        2.280221  -0.000000
  104        2.367743  -0.000000
  105        2.405531  -0.000000
  106        2.408799  -0.000000
  107        2.467417  -0.000000
  108        2.596319  -0.000000
  109        2.708616  -0.000000
  110        2.736602  -0.000000
  111        2.904635  -0.000000
  112        2.935690  -0.000000
  113        3.027610  -0.000000
  114        3.089266  -0.000000
  115        3.323278  -0.000000
  116        3.365099  -0.000000
  117        3.510978  -0.000000
  118        3.632356  -0.000000
  119        3.974623  -0.000000
  120        4.128462  -0.000000
  121        4.311444  -0.000000
  122        4.344720  -0.000000
  123        4.455864  -0.000000
  124        4.508669  -0.000000
  125        4.602464  -0.000000
  126        4.749501  -0.000000
  127        4.902430  -0.000000
  128        4.987447  -0.000000
 
  0.8333333E-01  0.1157023E-31  0.0000000E+00  0.5555556E-01
    1      -12.018901   1.000000
    2      -11.955534   1.000000
    3      -11.877152   1.000000
    4      -11.725523   1.000000
    5      -11.442963   1.000000
    6      -11.394061   1.000000
    7      -11.313864   1.000000
    8      -11.093976   1.000000
    9      -10.987686   1.000000
   10      -10.891436   1.000000
   11      -10.577322   1.000000
   12      -10.550874   1.000000
   13      -10.290961   1.000000
   14      -10.263475   1.000000
   15      -10.239502   1.000000
   16      -10.158363   1.000000
   17      -10.014604   1.000000
   18       -9.947411   1.000000
   19       -8.293163   1.000000
   20       -7.950405   1.000000
   21       -7.919736   1.000000
   22       -7.892929   1.000000
   23       -7.873732   1.000000
   24       -7.820312   1.000000
   25       -7.595619   1.000000
   26       -7.439720   1.000000
   27       -7.307178   1.000000
   28       -7.085345   1.000000
   29       -6.645466   1.000000
   30       -6.562472   1.000000
   31       -3.854211   1.000000
   32       -3.825018   1.000000
   33       -3.518774   1.000000
   34       -3.278316   1.000000
   35       -3.132184   1.000000
   36       -3.029284   1.000000
   37       -2.959366   1.000000
   38       -2.908845   1.000000
   39       -2.756534   1.000000
   40       -2.711670   1.000000
   41       -2.612131   1.000000
   42       -2.583757   1.000000
   43       -2.417592   1.000000
   44       -2.374533   1.000000
   45       -2.328692   1.000000
   46       -2.307779   1.000000
   47       -2.270541   1.000000
   48       -2.197287   1.000000
   49       -2.035007   1.000000
   50       -1.967213   1.000000
   51       -1.924549   1.000000
   52       -1.877184   1.000000
   53       -1.764768   1.000000
   54       -1.752216   1.000000
   55       -1.714795   1.000000
   56       -1.690626   1.000000
   57       -1.622789   1.000000
   58       -1.572710   1.000000
   59       -1.543981   1.000000
   60       -1.503363   1.000000
   61       -1.399524   1.000000
   62       -1.367455   1.000000
   63       -1.216838   1.000000
   64       -1.157676   1.000000
   65       -1.064571   1.000000
   66       -1.012801   1.000000
   67       -0.864371   1.000000
   68       -0.647130   1.000000
   69       -0.594671   1.000000
   70       -0.423654   1.000000
   71       -0.404508   1.000000
   72       -0.356507   1.000000
   73       -0.305846   1.000001
   74       -0.236526   1.000009
   75       -0.207561   1.000022
   76       -0.145384   1.000135
   77       -0.058530   1.001166
   78        0.006797   1.004415
   79        0.079163   1.014052
   80        0.147382   1.029015
   81        0.203458   1.035245
   82        0.299856   0.962120
   83        0.389008   0.712556
   84        0.433647   0.531742
   85        0.748886  -0.025900
   86        0.897297  -0.002914
   87        0.982291  -0.000440
   88        1.038711  -0.000100
   89        1.217553  -0.000000
   90        1.262267  -0.000000
   91        1.466148  -0.000000
   92        1.639444  -0.000000
   93        1.722831  -0.000000
   94        1.820207  -0.000000
   95        1.910141  -0.000000
   96        1.928258  -0.000000
   97        2.021690  -0.000000
   98        2.077804  -0.000000
   99        2.122956  -0.000000
  100        2.178225  -0.000000
  101        2.250396  -0.000000
  102        2.288673  -0.000000
  103        2.350437  -0.000000
  104        2.374798  -0.000000
  105        2.390036  -0.000000
  106        2.435334  -0.000000
  107        2.451483  -0.000000
  108        2.588858  -0.000000
  109        2.626998  -0.000000
  110        2.760017  -0.000000
  111        2.929930  -0.000000
  112        2.959975  -0.000000
  113        3.293282  -0.000000
  114        3.314415  -0.000000
  115        3.349093  -0.000000
  116        3.386908  -0.000000
  117        3.494110  -0.000000
  118        3.509481  -0.000000
  119        3.967176  -0.000000
  120        4.126775  -0.000000
  121        4.367424  -0.000000
  122        4.475750  -0.000000
  123        4.550692  -0.000000
  124        4.676466  -0.000000
  125        4.737609  -0.000000
  126        4.801330  -0.000000
  127        4.948181  -0.000000
  128        5.076865  -0.000000
 
  0.1666667E+00  0.1946107E-31  0.0000000E+00  0.5555556E-01
    1      -11.894917   1.000000
    2      -11.830246   1.000000
    3      -11.754478   1.000000
    4      -11.613744   1.000000
    5      -11.322018   1.000000
    6      -11.279194   1.000000
    7      -11.194105   1.000000
    8      -10.988197   1.000000
    9      -10.875982   1.000000
   10      -10.772543   1.000000
   11      -10.482731   1.000000
   12      -10.453090   1.000000
   13      -10.256571   1.000000
   14      -10.222120   1.000000
   15      -10.210785   1.000000
   16      -10.137471   1.000000
   17       -9.963212   1.000000
   18       -9.903114   1.000000
   19       -8.295023   1.000000
   20       -8.051083   1.000000
   21       -8.047722   1.000000
   22       -8.013274   1.000000
   23       -7.980713   1.000000
   24       -7.941100   1.000000
   25       -7.637602   1.000000
   26       -7.541073   1.000000
   27       -7.401619   1.000000
   28       -7.243744   1.000000
   29       -6.829562   1.000000
   30       -6.756814   1.000000
   31       -3.757052   1.000000
   32       -3.725528   1.000000
   33       -3.491324   1.000000
   34       -3.450604   1.000000
   35       -3.442548   1.000000
   36       -3.409984   1.000000
   37       -3.241646   1.000000
   38       -3.131261   1.000000
   39       -3.096281   1.000000
   40       -2.902747   1.000000
   41       -2.813713   1.000000
   42       -2.781222   1.000000
   43       -2.774485   1.000000
   44       -2.730372   1.000000
   45       -2.596327   1.000000
   46       -2.555366   1.000000
   47       -2.460633   1.000000
   48       -2.369132   1.000000
   49       -2.236758   1.000000
   50       -2.170661   1.000000
   51       -2.047533   1.000000
   52       -2.030028   1.000000
   53       -1.981281   1.000000
   54       -1.901800   1.000000
   55       -1.802901   1.000000
   56       -1.728633   1.000000
   57       -1.717573   1.000000
   58       -1.615609   1.000000
   59       -1.571410   1.000000
   60       -1.524662   1.000000
   61       -1.503575   1.000000
   62       -1.455059   1.000000
   63       -1.358442   1.000000
   64       -1.297996   1.000000
   65       -1.204451   1.000000
   66       -1.159424   1.000000
   67       -1.118311   1.000000
   68       -0.728085   1.000000
   69       -0.713489   1.000000
   70       -0.509237   1.000000
   71       -0.484378   1.000000
   72       -0.458022   1.000000
   73       -0.388444   1.000000
   74       -0.334478   1.000000
   75       -0.261061   1.000004
   76       -0.174024   1.000061
   77       -0.152206   1.000112
   78       -0.030919   1.002112
   79        0.120609   1.022940
   80        0.225375   1.031497
   81        0.264826   1.008088
   82        0.302710   0.957129
   83        0.439027   0.509004
   84        0.510932   0.223727
   85        0.999659  -0.000284
   86        1.004317  -0.000252
   87        1.068989  -0.000042
   88        1.105937  -0.000014
   89        1.485182  -0.000000
   90        1.508371  -0.000000
   91        1.571493  -0.000000
   92        1.786747  -0.000000
   93        1.848213  -0.000000
   94        1.925393  -0.000000
   95        1.983819  -0.000000
   96        2.061300  -0.000000
   97        2.157638  -0.000000
   98        2.252532  -0.000000
   99        2.277563  -0.000000
  100        2.308723  -0.000000
  101        2.333665  -0.000000
  102        2.361389  -0.000000
  103        2.394503  -0.000000
  104        2.438534  -0.000000
  105        2.511398  -0.000000
  106        2.629568  -0.000000
  107        2.698511  -0.000000
  108        2.846767  -0.000000
  109        2.893668  -0.000000
  110        2.996300  -0.000000
  111        3.021341  -0.000000
  112        3.092117  -0.000000
  113        3.291833  -0.000000
  114        3.356315  -0.000000
  115        3.397512  -0.000000
  116        3.420654  -0.000000
  117        3.767707  -0.000000
  118        3.825658  -0.000000
  119        3.937416  -0.000000
  120        4.060619  -0.000000
  121        4.576251  -0.000000
  122        4.719370  -0.000000
  123        4.796576  -0.000000
  124        4.900726  -0.000000
  125        4.986588  -0.000000
  126        5.066064  -0.000000
  127        5.171515  -0.000000
  128        5.217850  -0.000000
 
  0.2500000E+00  0.4837854E-31  0.0000000E+00  0.2777778E-01
    1      -11.696566   1.000000
    2      -11.629523   1.000000
    3      -11.558754   1.000000
    4      -11.438824   1.000000
    5      -11.131121   1.000000
    6      -11.097179   1.000000
    7      -11.007466   1.000000
    8      -10.827929   1.000000
    9      -10.703245   1.000000
   10      -10.587468   1.000000
   11      -10.394051   1.000000
   12      -10.322658   1.000000
   13      -10.233597   1.000000
   14      -10.195281   1.000000
   15      -10.115868   1.000000
   16      -10.102894   1.000000
   17       -9.893630   1.000000
   18       -9.835370   1.000000
   19       -8.331415   1.000000
   20       -8.276297   1.000000
   21       -8.237647   1.000000
   22       -8.188988   1.000000
   23       -8.153358   1.000000
   24       -8.145790   1.000000
   25       -7.714762   1.000000
   26       -7.704480   1.000000
   27       -7.564260   1.000000
   28       -7.480178   1.000000
   29       -7.124023   1.000000
   30       -7.068877   1.000000
   31       -3.867085   1.000000
   32       -3.776584   1.000000
   33       -3.722285   1.000000
   34       -3.653678   1.000000
   35       -3.595985   1.000000
   36       -3.559786   1.000000
   37       -3.485298   1.000000
   38       -3.432961   1.000000
   39       -3.228908   1.000000
   40       -3.219235   1.000000
   41       -3.122591   1.000000
   42       -2.985368   1.000000
   43       -2.861744   1.000000
   44       -2.846017   1.000000
   45       -2.751443   1.000000
   46       -2.690986   1.000000
   47       -2.634435   1.000000
   48       -2.521261   1.000000
   49       -2.478895   1.000000
   50       -2.387076   1.000000
   51       -2.295593   1.000000
   52       -2.262056   1.000000
   53       -2.141377   1.000000
   54       -2.115843   1.000000
   55       -2.048291   1.000000
   56       -1.916012   1.000000
   57       -1.800412   1.000000
   58       -1.765449   1.000000
   59       -1.734292   1.000000
   60       -1.672520   1.000000
   61       -1.613232   1.000000
   62       -1.581886   1.000000
   63       -1.457391   1.000000
   64       -1.407837   1.000000
   65       -1.244409   1.000000
   66       -1.133838   1.000000
   67       -1.125573   1.000000
   68       -0.943399   1.000000
   69       -0.928620   1.000000
   70       -0.762313   1.000000
   71       -0.688020   1.000000
   72       -0.581627   1.000000
   73       -0.489017   1.000000
   74       -0.345273   1.000000
   75       -0.278991   1.000002
   76       -0.194759   1.000033
   77       -0.148291   1.000125
   78       -0.117993   1.000279
   79       -0.048436   1.001456
   80        0.022708   1.005868
   81        0.174434   1.033890
   82        0.209543   1.034709
   83        0.300125   0.961658
   84        0.392838   0.697981
   85        0.847860  -0.007163
   86        0.867180  -0.005134
   87        0.939528  -0.001201
   88        1.158075  -0.000002
   89        1.584918  -0.000000
   90        1.649304  -0.000000
   91        1.692000  -0.000000
   92        1.848739  -0.000000
   93        1.938182  -0.000000
   94        2.030635  -0.000000
   95        2.232100  -0.000000
   96        2.297643  -0.000000
   97        2.335154  -0.000000
   98        2.387101  -0.000000
   99        2.423593  -0.000000
  100        2.447172  -0.000000
  101        2.497724  -0.000000
  102        2.517545  -0.000000
  103        2.624638  -0.000000
  104        2.662708  -0.000000
  105        2.766505  -0.000000
  106        2.839061  -0.000000
  107        2.943519  -0.000000
  108        3.019920  -0.000000
  109        3.070513  -0.000000
  110        3.178519  -0.000000
  111        3.276959  -0.000000
  112        3.309740  -0.000000
  113        3.379793  -0.000000
  114        3.442080  -0.000000
  115        3.653707  -0.000000
  116        3.688399  -0.000000
  117        3.916280  -0.000000
  118        3.937867  -0.000000
  119        3.970557  -0.000000
  120        4.083583  -0.000000
  121        4.853854  -0.000000
  122        4.896807  -0.000000
  123        5.024214  -0.000000
  124        5.070025  -0.000000
  125        5.083718  -0.000000
  126        5.116831  -0.000000
  127        5.246615  -0.000000
  128        5.328026  -0.000000
 
  0.3333333E+00  0.4260154E-31  0.0000000E+00  0.5555556E-01
    1      -11.440193   1.000000
    2      -11.368901   1.000000
    3      -11.306422   1.000000
    4      -11.220197   1.000000
    5      -10.894135   1.000000
    6      -10.867708   1.000000
    7      -10.786606   1.000000
    8      -10.646042   1.000000
    9      -10.501271   1.000000
   10      -10.408877   1.000000
   11      -10.352347   1.000000
   12      -10.286156   1.000000
   13      -10.252868   1.000000
   14      -10.198837   1.000000
   15       -9.987366   1.000000
   16       -9.950863   1.000000
   17       -9.833132   1.000000
   18       -9.754997   1.000000
   19       -8.571195   1.000000
   20       -8.519646   1.000000
   21       -8.448566   1.000000
   22       -8.397321   1.000000
   23       -8.335817   1.000000
   24       -8.317300   1.000000
   25       -7.938279   1.000000
   26       -7.855276   1.000000
   27       -7.741316   1.000000
   28       -7.706187   1.000000
   29       -7.490223   1.000000
   30       -7.457287   1.000000
   31       -4.166380   1.000000
   32       -3.933845   1.000000
   33       -3.845539   1.000000
   34       -3.787389   1.000000
   35       -3.715595   1.000000
   36       -3.625095   1.000000
   37       -3.470744   1.000000
   38       -3.437870   1.000000
   39       -3.403944   1.000000
   40       -3.381486   1.000000
   41       -3.292385   1.000000
   42       -3.106492   1.000000
   43       -3.101560   1.000000
   44       -2.954620   1.000000
   45       -2.797321   1.000000
   46       -2.753317   1.000000
   47       -2.714952   1.000000
   48       -2.632573   1.000000
   49       -2.622839   1.000000
   50       -2.587641   1.000000
   51       -2.491763   1.000000
   52       -2.451903   1.000000
   53       -2.355075   1.000000
   54       -2.325871   1.000000
   55       -2.288970   1.000000
   56       -2.081872   1.000000
   57       -2.003981   1.000000
   58       -1.972683   1.000000
   59       -1.966509   1.000000
   60       -1.821502   1.000000
   61       -1.742951   1.000000
   62       -1.667688   1.000000
   63       -1.580186   1.000000
   64       -1.447778   1.000000
   65       -1.211661   1.000000
   66       -1.107207   1.000000
   67       -1.074513   1.000000
   68       -0.965722   1.000000
   69       -0.956074   1.000000
   70       -0.884811   1.000000
   71       -0.825297   1.000000
   72       -0.753218   1.000000
   73       -0.573975   1.000000
   74       -0.527610   1.000000
   75       -0.413623   1.000000
   76       -0.258309   1.000004
   77       -0.247520   1.000006
   78       -0.144269   1.000140
   79       -0.118157   1.000278
   80       -0.067457   1.000953
   81       -0.026510   1.002312
   82        0.031475   1.006816
   83        0.186447   1.035115
   84        0.250631   1.019486
   85        0.615291  -0.005986
   86        0.649740  -0.029028
   87        0.797399  -0.015164
   88        1.228526  -0.000000
   89        1.416406  -0.000000
   90        1.599399  -0.000000
   91        1.771909  -0.000000
   92        1.916422  -0.000000
   93        1.988508  -0.000000
   94        2.127906  -0.000000
   95        2.199344  -0.000000
   96        2.296634  -0.000000
   97        2.356850  -0.000000
   98        2.403658  -0.000000
   99        2.540558  -0.000000
  100        2.555069  -0.000000
  101        2.591984  -0.000000
  102        2.675368  -0.000000
  103        2.722494  -0.000000
  104        2.873962  -0.000000
  105        2.926335  -0.000000
  106        2.972643  -0.000000
  107        3.055942  -0.000000
  108        3.116328  -0.000000
  109        3.234796  -0.000000
  110        3.278894  -0.000000
  111        3.371155  -0.000000
  112        3.401853  -0.000000
  113        3.451755  -0.000000
  114        3.497420  -0.000000
  115        3.592294  -0.000000
  116        3.666468  -0.000000
  117        3.994915  -0.000000
  118        4.068923  -0.000000
  119        4.152774  -0.000000
  120        4.282795  -0.000000
  121        4.688880  -0.000000
  122        4.905830  -0.000000
  123        4.966409  -0.000000
  124        5.115409  -0.000000
  125        5.210463  -0.000000
  126        5.236869  -0.000000
  127        5.353727  -0.000000
  128        5.412611  -0.000000
 
  0.4166667E+00  0.2011417E-30  0.0000000E+00  0.5555556E-01
    1      -11.164290   1.000000
    2      -11.083068   1.000000
    3      -11.032016   1.000000
    4      -10.988431   1.000000
    5      -10.679306   1.000000
    6      -10.641127   1.000000
    7      -10.632525   1.000000
    8      -10.526208   1.000000
    9      -10.458449   1.000000
   10      -10.426077   1.000000
   11      -10.396424   1.000000
   12      -10.261178   1.000000
   13      -10.231731   1.000000
   14      -10.110997   1.000000
   15       -9.830550   1.000000
   16       -9.814720   1.000000
   17       -9.788554   1.000000
   18       -9.692961   1.000000
   19       -8.844857   1.000000
   20       -8.792240   1.000000
   21       -8.631744   1.000000
   22       -8.606174   1.000000
   23       -8.387368   1.000000
   24       -8.369012   1.000000
   25       -8.154642   1.000000
   26       -8.067751   1.000000
   27       -7.884147   1.000000
   28       -7.863717   1.000000
   29       -7.836238   1.000000
   30       -7.809693   1.000000
   31       -4.246243   1.000000
   32       -3.994058   1.000000
   33       -3.923370   1.000000
   34       -3.832009   1.000000
   35       -3.808308   1.000000
   36       -3.748444   1.000000
   37       -3.571105   1.000000
   38       -3.491930   1.000000
   39       -3.418475   1.000000
   40       -3.373778   1.000000
   41       -3.302512   1.000000
   42       -3.140625   1.000000
   43       -3.113298   1.000000
   44       -3.072297   1.000000
   45       -2.890682   1.000000
   46       -2.887096   1.000000
   47       -2.820657   1.000000
   48       -2.728750   1.000000
   49       -2.709136   1.000000
   50       -2.696962   1.000000
   51       -2.602611   1.000000
   52       -2.537826   1.000000
   53       -2.480530   1.000000
   54       -2.427283   1.000000
   55       -2.314683   1.000000
   56       -2.307501   1.000000
   57       -2.260468   1.000000
   58       -2.151711   1.000000
   59       -2.119662   1.000000
   60       -1.915924   1.000000
   61       -1.837237   1.000000
   62       -1.763572   1.000000
   63       -1.666640   1.000000
   64       -1.509950   1.000000
   65       -1.247586   1.000000
   66       -1.181092   1.000000
   67       -1.118641   1.000000
   68       -0.930685   1.000000
   69       -0.880660   1.000000
   70       -0.828426   1.000000
   71       -0.822273   1.000000
   72       -0.729813   1.000000
   73       -0.698237   1.000000
   74       -0.553018   1.000000
   75       -0.436910   1.000000
   76       -0.343019   1.000000
   77       -0.305069   1.000001
   78       -0.296329   1.000001
   79       -0.219889   1.000015
   80       -0.134238   1.000183
   81       -0.066076   1.000984
   82       -0.009141   1.003267
   83        0.049674   1.009152
   84        0.128093   1.024672
   85        0.394723   0.690722
   86        0.423191   0.575674
   87        0.795127  -0.015617
   88        1.159382  -0.000002
   89        1.389080  -0.000000
   90        1.659697  -0.000000
   91        1.786578  -0.000000
   92        1.890663  -0.000000
   93        1.969991  -0.000000
   94        2.040390  -0.000000
   95        2.195552  -0.000000
   96        2.347263  -0.000000
   97        2.387085  -0.000000
   98        2.428950  -0.000000
   99        2.520995  -0.000000
  100        2.609633  -0.000000
  101        2.620883  -0.000000
  102        2.639863  -0.000000
  103        2.770883  -0.000000
  104        2.846497  -0.000000
  105        2.943778  -0.000000
  106        2.963423  -0.000000
  107        2.977210  -0.000000
  108        3.173016  -0.000000
  109        3.201390  -0.000000
  110        3.245774  -0.000000
  111        3.301928  -0.000000
  112        3.384712  -0.000000
  113        3.417838  -0.000000
  114        3.517130  -0.000000
  115        3.581802  -0.000000
  116        3.801841  -0.000000
  117        4.013773  -0.000000
  118        4.117045  -0.000000
  119        4.146307  -0.000000
  120        4.361279  -0.000000
  121        4.644392  -0.000000
  122        4.887690  -0.000000
  123        4.957783  -0.000000
  124        4.990203  -0.000000
  125        5.166101  -0.000000
  126        5.241532  -0.000000
  127        5.454381  -0.000000
  128        5.631661  -0.000000
 
  0.5000000E+00  0.9675708E-31  0.0000000E+00  0.1388889E-01
    1      -11.004557   1.000000
    2      -10.911368   1.000000
    3      -10.853977   1.000000
    4      -10.792176   1.000000
    5      -10.722796   1.000000
    6      -10.657119   1.000000
    7      -10.557470   1.000000
    8      -10.540757   1.000000
    9      -10.488504   1.000000
   10      -10.456263   1.000000
   11      -10.431363   1.000000
   12      -10.233182   1.000000
   13      -10.165044   1.000000
   14      -10.028980   1.000000
   15       -9.787443   1.000000
   16       -9.757702   1.000000
   17       -9.738378   1.000000
   18       -9.695868   1.000000
   19       -8.963975   1.000000
   20       -8.913100   1.000000
   21       -8.714001   1.000000
   22       -8.688994   1.000000
   23       -8.368855   1.000000
   24       -8.303814   1.000000
   25       -8.232282   1.000000
   26       -8.167420   1.000000
   27       -8.082166   1.000000
   28       -8.069135   1.000000
   29       -7.907048   1.000000
   30       -7.856932   1.000000
   31       -4.138229   1.000000
   32       -4.135010   1.000000
   33       -3.967140   1.000000
   34       -3.929990   1.000000
   35       -3.787104   1.000000
   36       -3.763630   1.000000
   37       -3.523620   1.000000
   38       -3.481417   1.000000
   39       -3.400846   1.000000
   40       -3.379874   1.000000
   41       -3.304116   1.000000
   42       -3.241246   1.000000
   43       -3.090928   1.000000
   44       -3.039429   1.000000
   45       -2.928610   1.000000
   46       -2.909076   1.000000
   47       -2.899037   1.000000
   48       -2.861433   1.000000
   49       -2.775952   1.000000
   50       -2.670014   1.000000
   51       -2.655110   1.000000
   52       -2.624121   1.000000
   53       -2.493584   1.000000
   54       -2.468496   1.000000
   55       -2.391183   1.000000
   56       -2.357837   1.000000
   57       -2.212413   1.000000
   58       -2.206064   1.000000
   59       -2.099035   1.000000
   60       -2.088741   1.000000
   61       -1.887021   1.000000
   62       -1.781339   1.000000
   63       -1.658582   1.000000
   64       -1.597957   1.000000
   65       -1.294246   1.000000
   66       -1.288999   1.000000
   67       -0.980293   1.000000
   68       -0.960339   1.000000
   69       -0.836975   1.000000
   70       -0.815927   1.000000
   71       -0.767178   1.000000
   72       -0.741825   1.000000
   73       -0.639246   1.000000
   74       -0.599570   1.000000
   75       -0.474340   1.000000
   76       -0.436269   1.000000
   77       -0.349460   1.000000
   78       -0.323831   1.000000
   79       -0.174212   1.000060
   80       -0.097243   1.000471
   81       -0.091072   1.000547
   82       -0.075380   1.000794
   83        0.043179   1.008259
   84        0.109459   1.020390
   85        0.256367   1.015327
   86        0.279425   0.992228
   87        0.937795  -0.001248
   88        0.955830  -0.000829
   89        1.533092  -0.000000
   90        1.543086  -0.000000
   91        1.790039  -0.000000
   92        1.797575  -0.000000
   93        1.992153  -0.000000
   94        2.144101  -0.000000
   95        2.301027  -0.000000
   96        2.308220  -0.000000
   97        2.403515  -0.000000
   98        2.414608  -0.000000
   99        2.489032  -0.000000
  100        2.541648  -0.000000
  101        2.655440  -0.000000
  102        2.664695  -0.000000
  103        2.757862  -0.000000
  104        2.777788  -0.000000
  105        2.905510  -0.000000
  106        2.906785  -0.000000
  107        3.001073  -0.000000
  108        3.067651  -0.000000
  109        3.185649  -0.000000
  110        3.221581  -0.000000
  111        3.303750  -0.000000
  112        3.363148  -0.000000
  113        3.420643  -0.000000
  114        3.449151  -0.000000
  115        3.726924  -0.000000
  116        3.790609  -0.000000
  117        4.007514  -0.000000
  118        4.081298  -0.000000
  119        4.243262  -0.000000
  120        4.259972  -0.000000
  121        4.776203  -0.000000