       N       E                     dE             d eps       ncg     rms          rms(c)
DAV:   1     0.592444820265E+03    0.59244E+03   -0.43371E+04  7168   0.625E+02
DAV:   2    -0.755468806623E+02   -0.66799E+03   -0.66768E+03 11264   0.106E+02
DAV:   3    -0.103573612219E+03   -0.28027E+02   -0.27963E+02 13312   0.309E+01
DAV:   4    -0.103659413304E+03   -0.85801E-01   -0.85796E-01  9728   0.204E+00
DAV:   5    -0.103660308988E+03   -0.89568E-03   -0.89568E-03 14336   0.206E-01    0.764E+00
RMM:   6    -0.102849386624E+03    0.81092E+00   -0.53992E+00  7168   0.266E+00    0.655E+00
RMM:   7    -0.101037587856E+03    0.18118E+01   -0.11584E+00  7168   0.118E+00    0.339E+00
RMM:   8    -0.100746378672E+03    0.29121E+00   -0.22013E-01  7168   0.500E-01    0.289E+00
RMM:   9    -0.100374943606E+03    0.37144E+00   -0.13122E-01  7168   0.504E-01    0.138E+00
RMM:  10    -0.100336893256E+03    0.38050E-01   -0.87519E-02  7168   0.521E-01    0.353E-01
RMM:  11    -0.100332969308E+03    0.39239E-02   -0.80269E-03  7181   0.158E-01    0.178E-01
RMM:  12    -0.100334117691E+03   -0.11484E-02   -0.14236E-03  7231   0.672E-02    0.107E-01
RMM:  13    -0.100335923955E+03   -0.18063E-02   -0.11804E-03  7168   0.570E-02    0.873E-02
RMM:  14    -0.100336483546E+03   -0.55959E-03   -0.27132E-04  7168   0.224E-02    0.947E-02
RMM:  15    -0.100336792727E+03   -0.30918E-03   -0.33788E-04  7168   0.272E-02    0.280E-02
RMM:  16    -0.100337350826E+03   -0.55810E-03   -0.16286E-04  7168   0.174E-02    0.230E-02
RMM:  17    -0.100337619621E+03   -0.26879E-03   -0.63624E-05  7094   0.106E-02    0.138E-02
RMM:  18    -0.100337917994E+03   -0.29837E-03   -0.63330E-05  7025   0.114E-02    0.704E-03
RMM:  19    -0.100338043580E+03   -0.12559E-03   -0.23113E-05  6436   0.701E-03    0.418E-03
RMM:  20    -0.100338117598E+03   -0.74017E-04   -0.19446E-05  6345   0.641E-03    0.197E-03
RMM:  21    -0.100338131670E+03   -0.14072E-04   -0.36394E-06  5447   0.254E-03    0.119E-03
RMM:  22    -0.100338138048E+03   -0.63786E-05   -0.18225E-06  4930   0.178E-03    0.667E-04
RMM:  23    -0.100338139430E+03   -0.13819E-05   -0.30739E-07  3323   0.758E-04    0.449E-04
RMM:  24    -0.100338140303E+03   -0.87235E-06   -0.19720E-07  3162   0.657E-04
   1 F= -.10033814E+03 E0= -.10034267E+03  d E =-.100338E+03
       N       E                     dE             d eps       ncg     rms          rms(c)
DAV:   1    -0.101373335486E+03   -0.10352E+01   -0.22842E+01  7168   0.795E+00    0.686E-01
RMM:   2    -0.101422388878E+03   -0.49053E-01   -0.65378E-01  7168   0.165E+00    0.408E-01
RMM:   3    -0.101443343819E+03   -0.20955E-01   -0.26043E-02  7199   0.340E-01    0.652E-01
RMM:   4    -0.101413560531E+03    0.29783E-01   -0.58515E-03  7350   0.136E-01    0.223E-01
RMM:   5    -0.101412935238E+03    0.62529E-03   -0.17685E-03  7171   0.642E-02    0.144E-01
RMM:   6    -0.101414631040E+03   -0.16958E-02   -0.10405E-03  7168   0.453E-02    0.196E-01
RMM:   7    -0.101412426195E+03    0.22048E-02   -0.45690E-04  7173   0.284E-02    0.436E-02
RMM:   8    -0.101412416702E+03    0.94938E-05   -0.80905E-05  7262   0.153E-02    0.235E-02
RMM:   9    -0.101412436104E+03   -0.19402E-04   -0.19590E-05  7170   0.731E-03    0.152E-02
RMM:  10    -0.101412463990E+03   -0.27886E-04   -0.10540E-05  7028   0.565E-03    0.677E-03
RMM:  11    -0.101412496598E+03   -0.32608E-04   -0.58642E-06  6316   0.423E-03    0.332E-03
RMM:  12    -0.101412520367E+03   -0.23769E-04   -0.28706E-06  5458   0.258E-03    0.204E-03
RMM:  13    -0.101412539206E+03   -0.18840E-04   -0.28528E-06  5466   0.224E-03    0.118E-03
RMM:  14    -0.101412548617E+03   -0.94104E-05   -0.13752E-06  4953   0.148E-03    0.699E-04
RMM:  15    -0.101412552725E+03   -0.41080E-05   -0.72044E-07  4071   0.106E-03    0.350E-04
RMM:  16    -0.101412553876E+03   -0.11510E-05   -0.21949E-07  3233   0.649E-04    0.201E-04
RMM:  17    -0.101412554224E+03   -0.34860E-06   -0.76440E-08  2531   0.515E-04
   2 F= -.10141255E+03 E0= -.10141783E+03  d E =-.107441E+01
       N       E                     dE             d eps       ncg     rms          rms(c)
DAV:   1    -0.102415303528E+03   -0.10027E+01   -0.13460E+02  7424   0.194E+01    0.165E+00
RMM:   2    -0.102685730801E+03   -0.27043E+00   -0.40854E+00  7168   0.411E+00    0.913E-01
RMM:   3    -0.102786187202E+03   -0.10046E+00   -0.16003E-01  7198   0.863E-01    0.123E+00
RMM:   4    -0.102651455211E+03    0.13473E+00   -0.32765E-02  7389   0.335E-01    0.478E-01
RMM:   5    -0.102652794200E+03   -0.13390E-02   -0.11171E-02  7168   0.162E-01    0.360E-01
RMM:   6    -0.102652236699E+03    0.55750E-03   -0.64464E-03  7168   0.111E-01    0.334E-01
RMM:   7    -0.102644935068E+03    0.73016E-02   -0.27312E-03  7176   0.749E-02    0.819E-02
RMM:   8    -0.102645176795E+03   -0.24173E-03   -0.33050E-04  7272   0.332E-02    0.430E-02
RMM:   9    -0.102645494600E+03   -0.31780E-03   -0.12545E-04  7174   0.206E-02    0.222E-02
RMM:  10    -0.102645794333E+03   -0.29973E-03   -0.76869E-05  7168   0.149E-02    0.117E-02
RMM:  11    -0.102645954709E+03   -0.16038E-03   -0.23021E-05  6976   0.718E-03    0.788E-03
RMM:  12    -0.102646138397E+03   -0.18369E-03   -0.25923E-05  6470   0.637E-03    0.505E-03
RMM:  13    -0.102646309901E+03   -0.17150E-03   -0.34139E-05  6488   0.662E-03    0.289E-03
RMM:  14    -0.102646373035E+03   -0.63134E-04   -0.10855E-05  5904   0.346E-03    0.183E-03
RMM:  15    -0.102646405167E+03   -0.32132E-04   -0.64155E-06  5705   0.278E-03    0.927E-04
RMM:  16    -0.102646412286E+03   -0.71190E-05   -0.12269E-06  4519   0.130E-03    0.597E-04
RMM:  17    -0.102646416034E+03   -0.37484E-05   -0.75933E-07  4311   0.106E-03    0.296E-04
RMM:  18    -0.102646416902E+03   -0.86784E-06   -0.19180E-07  3133   0.588E-04
   3 F= -.10264642E+03 E0= -.10264773E+03  d E =-.230828E+01
       N       E                     dE             d eps       ncg     rms          rms(c)
DAV:   1    -0.103056188297E+03   -0.40977E+00   -0.25350E+01  7936   0.835E+00    0.689E-01
RMM:   2    -0.103110128411E+03   -0.53940E-01   -0.70285E-01  7168   0.171E+00    0.380E-01
RMM:   3    -0.103120650601E+03   -0.10522E-01   -0.26720E-02  7255   0.353E-01    0.429E-01
RMM:   4    -0.103104088447E+03    0.16562E-01   -0.49139E-03  7428   0.132E-01    0.180E-01
RMM:   5    -0.103104113139E+03   -0.24692E-04   -0.21761E-03  7168   0.755E-02    0.109E-01
RMM:   6    -0.103104001468E+03    0.11167E-03   -0.59338E-04  7168   0.359E-02    0.810E-02
RMM:   7    -0.103103419966E+03    0.58150E-03   -0.19288E-04  7195   0.204E-02    0.256E-02
RMM:   8    -0.103103468472E+03   -0.48505E-04   -0.29505E-05  7265   0.100E-02    0.140E-02
RMM:   9    -0.103103538733E+03   -0.70262E-04   -0.23184E-05  7168   0.820E-03    0.601E-03
RMM:  10    -0.103103582008E+03   -0.43275E-04   -0.63945E-06  6125   0.410E-03    0.331E-03
RMM:  11    -0.103103622998E+03   -0.40990E-04   -0.49834E-06  5719   0.300E-03    0.226E-03
RMM:  12    -0.103103647387E+03   -0.24389E-04   -0.28153E-06  5373   0.205E-03    0.131E-03
RMM:  13    -0.103103667003E+03   -0.19617E-04   -0.24909E-06  5201   0.174E-03    0.857E-04
RMM:  14    -0.103103677753E+03   -0.10749E-04   -0.15492E-06  4560   0.130E-03    0.488E-04
RMM:  15    -0.103103681160E+03   -0.34077E-05   -0.54518E-07  3818   0.838E-04    0.310E-04
RMM:  16    -0.103103682512E+03   -0.13518E-05   -0.27012E-07  3444   0.657E-04    0.162E-04
RMM:  17    -0.103103682916E+03   -0.40346E-06   -0.10160E-07  2782   0.510E-04
   4 F= -.10310368E+03 E0= -.10310724E+03  d E =-.457266E+00
       N       E                     dE             d eps       ncg     rms          rms(c)
DAV:   1    -0.103176829937E+03   -0.73147E-01   -0.11454E+01  7936   0.564E+00    0.455E-01
RMM:   2    -0.103200611638E+03   -0.23782E-01   -0.31673E-01  7168   0.115E+00    0.241E-01
RMM:   3    -0.103202842056E+03   -0.22304E-02   -0.11788E-02  7255   0.236E-01    0.246E-01
RMM:   4    -0.103198159963E+03    0.46821E-02   -0.21238E-03  7396   0.891E-02    0.112E-01
RMM:   5    -0.103198223533E+03   -0.63570E-04   -0.91771E-04  7168   0.505E-02    0.683E-02
RMM:   6    -0.103197918145E+03    0.30539E-03   -0.23310E-04  7182   0.225E-02    0.402E-02
RMM:   7    -0.103197836644E+03    0.81502E-04   -0.57081E-05  7230   0.129E-02    0.143E-02
RMM:   8    -0.103197863611E+03   -0.26968E-04   -0.12221E-05  7060   0.634E-03    0.837E-03
RMM:   9    -0.103197892434E+03   -0.28823E-04   -0.79066E-06  6622   0.478E-03    0.382E-03
RMM:  10    -0.103197915000E+03   -0.22565E-04   -0.25800E-06  5293   0.264E-03    0.217E-03
RMM:  11    -0.103197936304E+03   -0.21304E-04   -0.23888E-06  5263   0.205E-03    0.129E-03
RMM:  12    -0.103197951775E+03   -0.15471E-04   -0.18855E-06  5111   0.163E-03    0.818E-04
RMM:  13    -0.103197960777E+03   -0.90025E-05   -0.10391E-06  4252   0.109E-03    0.524E-04
RMM:  14    -0.103197965610E+03   -0.48324E-05   -0.77096E-07  4259   0.954E-04    0.277E-04
RMM:  15    -0.103197966764E+03   -0.11542E-05   -0.17578E-07  3064   0.560E-04    0.180E-04
RMM:  16    -0.103197967306E+03   -0.54146E-06   -0.14782E-07  2919   0.555E-04
   5 F= -.10319797E+03 E0= -.10320393E+03  d E =-.551550E+00
       N       E                     dE             d eps       ncg     rms          rms(c)
DAV:   1    -0.103389736976E+03   -0.19177E+00   -0.20957E+01  7168   0.726E+00    0.545E-01
RMM:   2    -0.103435525070E+03   -0.45788E-01   -0.54647E-01  7168   0.148E+00    0.320E-01
RMM:   3    -0.103434476389E+03    0.10487E-02   -0.20878E-02  7250   0.302E-01    0.326E-01
RMM:   4    -0.103426435466E+03    0.80409E-02   -0.35987E-03  7340   0.114E-01    0.135E-01
RMM:   5    -0.103426047501E+03    0.38796E-03   -0.10205E-03  7176   0.527E-02    0.746E-02
RMM:   6    -0.103426350967E+03   -0.30347E-03   -0.48388E-04  7168   0.344E-02    0.708E-02
RMM:   7    -0.103425890059E+03    0.46091E-03   -0.12890E-04  7330   0.165E-02    0.182E-02
RMM:   8    -0.103425915841E+03   -0.25782E-04   -0.23594E-05  7214   0.827E-03    0.104E-02
RMM:   9    -0.103425950638E+03   -0.34796E-04   -0.11354E-05  6731   0.532E-03    0.569E-03
RMM:  10    -0.103425981309E+03   -0.30671E-04   -0.38009E-06  5607   0.313E-03    0.299E-03
RMM:  11    -0.103426013082E+03   -0.31773E-04   -0.29079E-06  5359   0.233E-03    0.173E-03
RMM:  12    -0.103426046145E+03   -0.33063E-04   -0.38496E-06  5506   0.218E-03    0.100E-03
RMM:  13    -0.103426064162E+03   -0.18017E-04   -0.24453E-06  5014   0.163E-03    0.690E-04
RMM:  14    -0.103426071001E+03   -0.68393E-05   -0.10971E-06  4297   0.109E-03    0.369E-04
RMM:  15    -0.103426072836E+03   -0.18354E-05   -0.36703E-07  3603   0.722E-04    0.200E-04
RMM:  16    -0.103426073236E+03   -0.39906E-06   -0.10666E-07  2855   0.526E-04
   6 F= -.10342607E+03 E0= -.10343079E+03  d E =-.228106E+00
       N       E                     dE             d eps       ncg     rms          rms(c)
DAV:   1    -0.103436253066E+03   -0.10180E-01   -0.23729E+00  7936   0.244E+00    0.180E-01
RMM:   2    -0.103441222473E+03   -0.49694E-02   -0.57868E-02  7168   0.484E-01    0.113E-01
RMM:   3    -0.103440875829E+03    0.34664E-03   -0.22257E-03  7260   0.991E-02    0.108E-01
RMM:   4    -0.103440027414E+03    0.84842E-03   -0.38114E-04  7343   0.373E-02    0.436E-02
RMM:   5    -0.103439998422E+03    0.28992E-04   -0.11565E-04  7175   0.177E-02    0.255E-02
RMM:   6    -0.103440027073E+03   -0.28651E-04   -0.49387E-05  7168   0.106E-02    0.253E-02
RMM:   7    -0.103439969279E+03    0.57794E-04   -0.15969E-05  7019   0.585E-03    0.585E-03
RMM:   8    -0.103439970753E+03   -0.14737E-05   -0.24130E-06  5284   0.284E-03    0.353E-03
RMM:   9    -0.103439972759E+03   -0.20059E-05   -0.12441E-06  4618   0.205E-03    0.189E-03
RMM:  10    -0.103439974580E+03   -0.18210E-05   -0.34422E-07  4339   0.119E-03    0.101E-03
RMM:  11    -0.103439976599E+03   -0.20185E-05   -0.19621E-07  3967   0.841E-04    0.574E-04
RMM:  12    -0.103439978664E+03   -0.20656E-05   -0.22749E-07  3831   0.746E-04    0.327E-04
RMM:  13    -0.103439979849E+03   -0.11850E-05   -0.12880E-07  3025   0.592E-04    0.215E-04
RMM:  14    -0.103439980415E+03   -0.56553E-06   -0.12426E-07  2747   0.556E-04
   7 F= -.10343998E+03 E0= -.10344432E+03  d E =-.242013E+00
       N       E                     dE             d eps       ncg     rms          rms(c)
DAV:   1    -0.103580742914E+03   -0.14076E+00   -0.15416E+01  7168   0.635E+00    0.490E-01
RMM:   2    -0.103613657818E+03   -0.32915E-01   -0.41712E-01  7168   0.128E+00    0.247E-01
RMM:   3    -0.103615859384E+03   -0.22016E-02   -0.14014E-02  7264   0.258E-01    0.242E-01
RMM:   4    -0.103611751693E+03    0.41077E-02   -0.21756E-03  7377   0.937E-02    0.112E-01
RMM:   5    -0.103611877123E+03   -0.12543E-03   -0.80642E-04  7168   0.496E-02    0.698E-02
RMM:   6    -0.103611549318E+03    0.32780E-03   -0.19972E-04  7202   0.209E-02    0.370E-02
RMM:   7    -0.103611466141E+03    0.83177E-04   -0.42562E-05  7324   0.113E-02    0.130E-02
RMM:   8    -0.103611484945E+03   -0.18804E-04   -0.10456E-05  6936   0.558E-03    0.744E-03
RMM:   9    -0.103611510200E+03   -0.25255E-04   -0.58211E-06  6288   0.393E-03    0.402E-03
RMM:  10    -0.103611534426E+03   -0.24225E-04   -0.20353E-06  5179   0.237E-03    0.246E-03
RMM:  11    -0.103611564653E+03   -0.30228E-04   -0.30724E-06  5480   0.228E-03    0.147E-03
RMM:  12    -0.103611584209E+03   -0.19556E-04   -0.21621E-06  5252   0.173E-03    0.985E-04
RMM:  13    -0.103611593799E+03   -0.95892E-05   -0.10709E-06  4494   0.116E-03    0.639E-04
RMM:  14    -0.103611599266E+03   -0.54674E-05   -0.88047E-07  4259   0.105E-03    0.314E-04
RMM:  15    -0.103611600482E+03   -0.12155E-05   -0.21467E-07  3302   0.613E-04    0.187E-04
RMM:  16    -0.103611600888E+03   -0.40661E-06   -0.10453E-07  2794   0.531E-04
   8 F= -.10361160E+03 E0= -.10361516E+03  d E =-.171620E+00
       N       E                     dE             d eps       ncg     rms          rms(c)
DAV:   1    -0.103638957359E+03   -0.27357E-01   -0.16500E+01  7168   0.658E+00    0.507E-01
RMM:   2    -0.103675004226E+03   -0.36047E-01   -0.44921E-01  7168   0.133E+00    0.267E-01
RMM:   3    -0.103676762537E+03   -0.17583E-02   -0.15636E-02  7248   0.268E-01    0.255E-01
RMM:   4    -0.103671994178E+03    0.47684E-02   -0.23724E-03  7358   0.982E-02    0.115E-01
RMM:   5    -0.103672425059E+03   -0.43088E-03   -0.90454E-04  7168   0.525E-02    0.852E-02
RMM:   6    -0.103671782956E+03    0.64210E-03   -0.23310E-04  7209   0.225E-02    0.307E-02
RMM:   7    -0.103671751660E+03    0.31297E-04   -0.37102E-05  7339   0.115E-02    0.129E-02
RMM:   8    -0.103671774128E+03   -0.22468E-04   -0.10910E-05  6967   0.562E-03    0.776E-03
RMM:   9    -0.103671802654E+03   -0.28526E-04   -0.63468E-06  6384   0.414E-03    0.371E-03
RMM:  10    -0.103671831077E+03   -0.28423E-04   -0.23933E-06  5297   0.245E-03    0.240E-03
RMM:  11    -0.103671861965E+03   -0.30888E-04   -0.32689E-06  5500   0.228E-03    0.143E-03
RMM:  12    -0.103671881293E+03   -0.19328E-04   -0.22365E-06  5277   0.174E-03    0.967E-04
RMM:  13    -0.103671890933E+03   -0.96395E-05   -0.11527E-06  4444   0.118E-03    0.601E-04
RMM:  14    -0.103671895841E+03   -0.49077E-05   -0.84304E-07  4299   0.104E-03    0.303E-04
RMM:  15    -0.103671896917E+03   -0.10763E-05   -0.20698E-07  3241   0.600E-04    0.171E-04
RMM:  16    -0.103671897244E+03   -0.32707E-06   -0.86064E-08  2657   0.512E-04
   9 F= -.10367190E+03 E0= -.10367454E+03  d E =-.231917E+00
       N       E                     dE             d eps       ncg     rms          rms(c)
DAV:   1    -0.103728697458E+03   -0.56801E-01   -0.66391E+00  7168   0.417E+00    0.308E-01
RMM:   2    -0.103743440664E+03   -0.14743E-01   -0.17349E-01  7168   0.828E-01    0.190E-01
RMM:   3    -0.103743206442E+03    0.23422E-03   -0.63968E-03  7234   0.171E-01    0.155E-01
RMM:   4    -0.103741703110E+03    0.15033E-02   -0.97713E-04  7394   0.629E-02    0.843E-02
RMM:   5    -0.103741935826E+03   -0.23272E-03   -0.34478E-04  7193   0.278E-02    0.790E-02
RMM:   6    -0.103741487874E+03    0.44795E-03   -0.24989E-04  7168   0.246E-02    0.189E-02
RMM:   7    -0.103741476864E+03    0.11010E-04   -0.20484E-05  7315   0.800E-03    0.941E-03
RMM:   8    -0.103741480852E+03   -0.39883E-05   -0.61455E-06  6490   0.416E-03    0.487E-03
RMM:   9    -0.103741488124E+03   -0.72717E-05   -0.28466E-06  5461   0.305E-03    0.216E-03
RMM:  10    -0.103741493719E+03   -0.55948E-05   -0.67691E-07  4658   0.155E-03    0.130E-03
RMM:  11    -0.103741499714E+03   -0.59954E-05   -0.73156E-07  4706   0.125E-03    0.716E-04
RMM:  12    -0.103741503196E+03   -0.34817E-05   -0.37807E-07  4135   0.838E-04    0.474E-04
RMM:  13    -0.103741505086E+03   -0.18898E-05   -0.19272E-07  3252   0.620E-04    0.275E-04
RMM:  14    -0.103741506142E+03   -0.10564E-05   -0.23532E-07  3588   0.665E-04    0.128E-04
RMM:  15    -0.103741506309E+03   -0.16712E-06   -0.13709E-08  1838   0.396E-04
  10 F= -.10374151E+03 E0= -.10374339E+03  d E =-.696091E-01
       N       E                     dE             d eps       ncg     rms          rms(c)
DAV:   1    -0.103751008447E+03   -0.95023E-02   -0.47124E+00  7168   0.352E+00    0.259E-01
RMM:   2    -0.103761581376E+03   -0.10573E-01   -0.12424E-01  7168   0.700E-01    0.160E-01
RMM:   3    -0.103761342147E+03    0.23923E-03   -0.45534E-03  7264   0.144E-01    0.127E-01
RMM:   4    -0.103760371233E+03    0.97091E-03   -0.67998E-04  7387   0.524E-02    0.711E-02
RMM:   5    -0.103760514581E+03   -0.14335E-03   -0.24320E-04  7197   0.234E-02    0.656E-02
RMM:   6    -0.103760204173E+03    0.31041E-03   -0.17554E-04  7168   0.209E-02    0.134E-02
RMM:   7    -0.103760202333E+03    0.18395E-05   -0.12581E-05  7126   0.658E-03    0.752E-03
RMM:   8    -0.103760205258E+03   -0.29242E-05   -0.41289E-06  6076   0.350E-03    0.384E-03
RMM:   9    -0.103760210148E+03   -0.48909E-05   -0.17906E-06  4903   0.252E-03    0.176E-03
RMM:  10    -0.103760213859E+03   -0.37109E-05   -0.48483E-07  4546   0.133E-03    0.106E-03
RMM:  11    -0.103760217676E+03   -0.38169E-05   -0.44229E-07  4538   0.103E-03    0.600E-04
RMM:  12    -0.103760219845E+03   -0.21684E-05   -0.24024E-07  3708   0.730E-04    0.387E-04
RMM:  13    -0.103760221110E+03   -0.12656E-05   -0.14813E-07  3130   0.599E-04    0.222E-04
RMM:  14    -0.103760221781E+03   -0.67075E-06   -0.16417E-07  3081   0.596E-04
  11 F= -.10376022E+03 E0= -.10376178E+03  d E =-.883245E-01
       N       E                     dE             d eps       ncg     rms          rms(c)
DAV:   1    -0.103782219399E+03   -0.21998E-01   -0.92585E+00  7168   0.490E+00    0.344E-01
RMM:   2    -0.103810676001E+03   -0.28457E-01   -0.24808E-01  7168   0.986E-01    0.309E-01
RMM:   3    -0.103800693026E+03    0.99830E-02   -0.96041E-03  7247   0.203E-01    0.150E-01
RMM:   4    -0.103800554321E+03    0.13870E-03   -0.12576E-03  7360   0.716E-02    0.113E-01
RMM:   5    -0.103800038207E+03    0.51611E-03   -0.41009E-04  7245   0.308E-02    0.750E-02
RMM:   6    -0.103799777605E+03    0.26060E-03   -0.32081E-04  7168   0.292E-02    0.195E-02
RMM:   7    -0.103799771246E+03    0.63584E-05   -0.28826E-05  7486   0.105E-02    0.944E-03
RMM:   8    -0.103799771743E+03   -0.49689E-06   -0.73243E-06  6755   0.480E-03
  12 F= -.10379977E+03 E0= -.10380147E+03  d E =-.395500E-01
       N       E                     dE             d eps       ncg     rms          rms(c)
DAV:   1    -0.103799974944E+03   -0.20370E-03   -0.96785E-02 12544   0.499E-01    0.331E-02
RMM:   2    -0.103800192130E+03   -0.21719E-03   -0.18200E-03  7168   0.872E-02    0.317E-02
RMM:   3    -0.103800093816E+03    0.98314E-04   -0.79420E-05  7307   0.187E-02    0.150E-02
RMM:   4    -0.103800092357E+03    0.14593E-05   -0.11591E-05  7111   0.664E-03    0.111E-02
RMM:   5    -0.103800086733E+03    0.56240E-05   -0.39899E-06  5876   0.310E-03    0.703E-03
RMM:   6    -0.103800084705E+03    0.20276E-05   -0.26794E-06  5397   0.301E-03    0.198E-03
RMM:   7    -0.103800085599E+03   -0.89316E-06   -0.38413E-07  4105   0.145E-03
  13 F= -.10380009E+03 E0= -.10380183E+03  d E =-.398638E-01
       N       E                     dE             d eps       ncg     rms          rms(c)
DAV:   1    -0.103810423997E+03   -0.10339E-01   -0.75886E+00  7168   0.446E+00    0.321E-01
RMM:   2    -0.103826993476E+03   -0.16569E-01   -0.20728E-01  7168   0.908E-01    0.175E-01
RMM:   3    -0.103826560183E+03    0.43329E-03   -0.57928E-03  7216   0.175E-01    0.119E-01
RMM:   4    -0.103826489736E+03    0.70447E-04   -0.94176E-04  7470   0.634E-02    0.996E-02
RMM:   5    -0.103825981629E+03    0.50811E-03   -0.38524E-04  7168   0.317E-02    0.427E-02
RMM:   6    -0.103826001513E+03   -0.19884E-04   -0.14288E-04  7176   0.189E-02    0.254E-02
RMM:   7    -0.103825924498E+03    0.77014E-04   -0.30299E-05  7354   0.849E-03    0.961E-03
RMM:   8    -0.103825928460E+03   -0.39613E-05   -0.66368E-06  6622   0.450E-03    0.470E-03
RMM:   9    -0.103825934020E+03   -0.55606E-05   -0.32400E-06  5578   0.324E-03    0.179E-03
RMM:  10    -0.103825937556E+03   -0.35361E-05   -0.52921E-07  4554   0.148E-03    0.105E-03
RMM:  11    -0.103825941279E+03   -0.37226E-05   -0.56444E-07  4602   0.119E-03    0.537E-04
RMM:  12    -0.103825943207E+03   -0.19275E-05   -0.15749E-07  3322   0.667E-04    0.362E-04
RMM:  13    -0.103825944743E+03   -0.15361E-05   -0.21792E-07  3710   0.694E-04    0.198E-04
RMM:  14    -0.103825945303E+03   -0.56041E-06   -0.54435E-08  2397   0.484E-04
  14 F= -.10382595E+03 E0= -.10382754E+03  d E =-.258597E-01
       N       E                     dE             d eps       ncg     rms          rms(c)
DAV:   1    -0.103825945887E+03   -0.11439E-05   -0.21203E-04 11264   0.235E-02    0.169E-03
RMM:   2    -0.103825946311E+03   -0.42480E-06   -0.45016E-06  5448   0.435E-03
  15 F= -.10382595E+03 E0= -.10382754E+03  d E =-.258607E-01
       N       E                     dE             d eps       ncg     rms          rms(c)
DAV:   1    -0.103835400236E+03   -0.94543E-02   -0.17524E+00  7168   0.218E+00    0.151E-01
RMM:   2    -0.103839266333E+03   -0.38661E-02   -0.47244E-02  7168   0.434E-01    0.812E-02
RMM:   3    -0.103839406171E+03   -0.13984E-03   -0.14701E-03  7285   0.857E-02    0.714E-02
RMM:   4    -0.103839112768E+03    0.29340E-03   -0.20985E-04  7355   0.294E-02    0.426E-02
RMM:   5    -0.103839084680E+03    0.28089E-04   -0.95630E-05  7170   0.164E-02    0.215E-02
RMM:   6    -0.103839076613E+03    0.80664E-05   -0.32410E-05  7168   0.867E-03    0.121E-02
RMM:   7    -0.103839066030E+03    0.10583E-04   -0.60113E-06  6415   0.421E-03    0.458E-03
RMM:   8    -0.103839068014E+03   -0.19843E-05   -0.15234E-06  4685   0.248E-03    0.232E-03
RMM:   9    -0.103839070279E+03   -0.22648E-05   -0.87933E-07  4479   0.181E-03    0.109E-03
RMM:  10    -0.103839071751E+03   -0.14718E-05   -0.21752E-07  4171   0.967E-04    0.676E-04
RMM:  11    -0.103839073354E+03   -0.16032E-05   -0.24761E-07  4152   0.845E-04    0.341E-04
RMM:  12    -0.103839074052E+03   -0.69826E-06   -0.75378E-08  2629   0.550E-04
  16 F= -.10383907E+03 E0= -.10384042E+03  d E =-.131277E-01
       N       E                     dE             d eps       ncg     rms          rms(c)
DAV:   1    -0.103839872881E+03   -0.79953E-03   -0.14699E+00  7168   0.199E+00    0.139E-01
RMM:   2    -0.103843110926E+03   -0.32380E-02   -0.39658E-02  7168   0.397E-01    0.751E-02
RMM:   3    -0.103843238691E+03   -0.12776E-03   -0.12446E-03  7284   0.787E-02    0.667E-02
RMM:   4    -0.103842973083E+03    0.26561E-03   -0.17822E-04  7355   0.270E-02    0.390E-02
RMM:   5    -0.103842952814E+03    0.20269E-04   -0.80918E-05  7169   0.151E-02    0.199E-02
RMM:   6    -0.103842945080E+03    0.77344E-05   -0.27393E-05  7168   0.796E-03    0.111E-02
RMM:   7    -0.103842936575E+03    0.85043E-05   -0.50280E-06  6161   0.390E-03    0.420E-03
RMM:   8    -0.103842938464E+03   -0.18882E-05   -0.13168E-06  4630   0.234E-03    0.212E-03
RMM:   9    -0.103842940567E+03   -0.21032E-05   -0.76318E-07  4432   0.170E-03    0.100E-03
RMM:  10    -0.103842941928E+03   -0.13617E-05   -0.19328E-07  4041   0.920E-04    0.619E-04
RMM:  11    -0.103842943410E+03   -0.14818E-05   -0.23885E-07  4149   0.825E-04    0.306E-04
RMM:  12    -0.103842944035E+03   -0.62475E-06   -0.62887E-08  2468   0.528E-04
  17 F= -.10384294E+03 E0= -.10384408E+03  d E =-.169977E-01
       N       E                     dE             d eps       ncg     rms          rms(c)
DAV:   1    -0.103848792075E+03   -0.58487E-02   -0.16138E+00  7168   0.205E+00    0.138E-01
RMM:   2    -0.103852133152E+03   -0.33411E-02   -0.40324E-02  7168   0.402E-01    0.711E-02
RMM:   3    -0.103852093435E+03    0.39717E-04   -0.12048E-03  7276   0.789E-02    0.477E-02
RMM:   4    -0.103852058425E+03    0.35010E-04   -0.16559E-04  7380   0.269E-02    0.366E-02
RMM:   5    -0.103852028848E+03    0.29577E-04   -0.72245E-05  7191   0.141E-02    0.221E-02
RMM:   6    -0.103852001958E+03    0.26890E-04   -0.24169E-05  7139   0.696E-03    0.113E-02
RMM:   7    -0.103851993032E+03    0.89263E-05   -0.42168E-06  6004   0.368E-03    0.404E-03
RMM:   8    -0.103851993985E+03   -0.95238E-06   -0.12649E-06  4550   0.220E-03
  18 F= -.10385199E+03 E0= -.10385322E+03  d E =-.904995E-02
       N       E                     dE             d eps       ncg     rms          rms(c)
DAV:   1    -0.103852279361E+03   -0.28633E-03   -0.54428E-01  7168   0.119E+00    0.803E-02
RMM:   2    -0.103853405434E+03   -0.11261E-02   -0.13587E-02  7168   0.233E-01    0.414E-02
RMM:   3    -0.103853398668E+03    0.67659E-05   -0.40943E-04  7279   0.458E-02    0.292E-02
RMM:   4    -0.103853375825E+03    0.22843E-04   -0.56073E-05  7398   0.156E-02    0.219E-02
RMM:   5    -0.103853372626E+03    0.31990E-05   -0.24511E-05  7172   0.811E-03    0.150E-02
RMM:   6    -0.103853356303E+03    0.16323E-04   -0.10136E-05  6531   0.449E-03    0.608E-03
RMM:   7    -0.103853354935E+03    0.13687E-05   -0.14340E-06  4567   0.245E-03    0.239E-03
RMM:   8    -0.103853355960E+03   -0.10253E-05   -0.57097E-07  4229   0.156E-03    0.125E-03
RMM:   9    -0.103853356933E+03   -0.97332E-06   -0.29097E-07  4139   0.108E-03
  19 F= -.10385336E+03 E0= -.10385463E+03  d E =-.104129E-01
       N       E                     dE             d eps       ncg     rms          rms(c)
DAV:   1    -0.103858728586E+03   -0.53726E-02   -0.16702E+00  7168   0.204E+00    0.126E-01
RMM:   2    -0.103862127317E+03   -0.33987E-02   -0.37603E-02  7168   0.385E-01    0.603E-02
RMM:   3    -0.103862127575E+03   -0.25740E-06   -0.10669E-03  7302   0.752E-02    0.432E-02
RMM:   4    -0.103862115742E+03    0.11832E-04   -0.14378E-04  7492   0.257E-02    0.345E-02
RMM:   5    -0.103862070806E+03    0.44936E-04   -0.65385E-05  7208   0.130E-02    0.146E-02
RMM:   6    -0.103862058698E+03    0.12108E-04   -0.12391E-05  6957   0.557E-03    0.757E-03
RMM:   7    -0.103862054939E+03    0.37585E-05   -0.19795E-06  5005   0.276E-03    0.327E-03
RMM:   8    -0.103862055508E+03   -0.56852E-06   -0.11031E-06  4462   0.200E-03
  20 F= -.10386206E+03 E0= -.10386340E+03  d E =-.869857E-02
