Tetradymite Slab                        
           1
     3.750449    0.000000   -2.165323
     0.000000   31.337301    0.000000
     0.000000    0.000000   17.322584
   Sb   Te
  12  18
Direct configuration=     1
   0.66666700  0.93660678  0.04166662
   0.66666700  0.73005922  0.04166662
   0.00000000  0.60327378  0.20833338
   0.00000000  0.39672622  0.20833338
   0.33333300  0.26994078  0.12500012
   0.33333300  0.06339322  0.12500012
   0.66666700  0.93660678  0.29166662
   0.66666700  0.73005922  0.29166662
   0.00000000  0.60327378  0.45833338
   0.00000000  0.39672622  0.45833338
   0.33333300  0.26994078  0.37500012
   0.33333300  0.06339322  0.37500012
   0.00000000  0.78462329  0.20833338
   0.33333300  0.88204371  0.12500012
   0.00000000  0.00000000  0.20833338
   0.33333300  0.45129029  0.12500012
   0.66666700  0.54870971  0.04166662
   0.33333300  0.66666700  0.12500012
   0.66666700  0.11795629  0.04166662
   0.00000000  0.21537671  0.20833338
   0.66666700  0.33333300  0.04166662
   0.00000000  0.78462329  0.45833338
   0.33333300  0.88204371  0.37500012
   0.00000000  0.00000000  0.45833338
   0.33333300  0.45129029  0.37500012
   0.66666700  0.54870971  0.29166662
   0.33333300  0.66666700  0.37500012
   0.66666700  0.11795629  0.29166662
   0.00000000  0.21537671  0.45833338
   0.66666700  0.33333300  0.29166662
Direct configuration=     2
   0.67369512  0.93577688  0.04518069
   0.67589136  0.72963500  0.04627881
  -0.00607750  0.60235223  0.20529462
  -0.00914902  0.39696746  0.20375886
   0.33167954  0.27146176  0.12417339
   0.33333300  0.06339322  0.12500012
   0.67581611  0.93636576  0.29624118
   0.67274452  0.73098078  0.29470538
   0.00000000  0.60327378  0.45833338
  -0.00702814  0.39755625  0.45481930
   0.33469963  0.26768442  0.37568344
   0.33498683  0.06187207  0.37582704
   0.00000000  0.78462329  0.20833338
   0.32812857  0.88319946  0.12239791
  -0.00151400 -0.00034284  0.20757638
   0.33594104  0.45112480  0.12630414
   0.67202660  0.54892402  0.04434643
   0.32771177  0.66752817  0.12218951
   0.66920428  0.11690081  0.04293527
   0.00274177  0.21557907  0.20970426
   0.66666700  0.33333300  0.04166662
  -0.00535947  0.78440899  0.45565364
   0.33072517  0.88220908  0.37369621
   0.00000000  0.00000000  0.45833338
   0.33853721  0.45013432  0.37760223
   0.67197929  0.54934066  0.29432277
   0.33895407  0.66580572  0.37781066
   0.66666700  0.11795629  0.29166662
  -0.00253753  0.21643232  0.45706461
   0.66818084  0.33367593  0.29242355
Direct configuration=     3
   0.69083907  0.93375248  0.05375266
   0.69839268  0.72860017  0.05752947
  -0.02090257  0.60010426  0.19788209
  -0.03146658  0.39755593  0.19260009
   0.32764618  0.27517196  0.12215672
   0.33333300  0.06339322  0.12500012
   0.69813388  0.93577784  0.30740006
   0.68756962  0.73322877  0.30211794
   0.00000000  0.60327378  0.45833338
  -0.02417214  0.39958097  0.44624730
   0.33803331  0.26218041  0.37735028
   0.33902109  0.05816148  0.37784417
   0.00000000  0.78462329  0.20833338
   0.31543321  0.88601872  0.11605023
  -0.00520714 -0.00117915  0.20572980
   0.34230292  0.45072111  0.12948509
   0.68510047  0.54944680  0.05088336
   0.31399968  0.66962887  0.11533347
   0.67539356  0.11432616  0.04602991
   0.00942988  0.21607270  0.21304831
   0.66666700  0.33333300  0.04166662
  -0.01843302  0.78388626  0.44911686
   0.32436379  0.88261248  0.37051552
   0.00000000  0.00000000  0.45833338
   0.35123202  0.44731451  0.38394963
   0.68493777  0.55087977  0.30080201
   0.35266575  0.66370475  0.38466650
   0.66666700  0.11795629  0.29166662
  -0.00872742  0.21900728  0.45396966
   0.67187361  0.33451245  0.29426993
Direct configuration=     4
   0.69264715  0.93514771  0.05465670
   0.70748385  0.72765468  0.06207505
  -0.02483082  0.59857472  0.19591797
  -0.03878325  0.39652248  0.18894175
   0.32964708  0.27679666  0.12315717
   0.33333300  0.06339322  0.12500012
   0.70597354  0.93659044  0.31131990
   0.69443896  0.73458691  0.30555260
   0.00000000  0.60327378  0.45833338
  -0.02645826  0.39801867  0.44510424
   0.33252214  0.26230635  0.37459470
   0.33659034  0.05688601  0.37662880
   0.00000000  0.78462329  0.20833338
   0.31662975  0.88526119  0.11664850
  -0.00354581 -0.00203688  0.20656047
   0.34234316  0.45167057  0.12950520
   0.68919376  0.54935069  0.05293001
   0.30508079  0.67046258  0.11087402
   0.67668512  0.11326166  0.04667568
   0.00874395  0.21651967  0.21270535
   0.66666700  0.33333300  0.04166662
  -0.02136573  0.78400613  0.44765051
   0.32431733  0.88171646  0.37049229
   0.00000000  0.00000000  0.45833338
   0.34973772  0.44816705  0.38320248
   0.69006730  0.55156996  0.30336677
   0.36463063  0.66228583  0.39064894
   0.66666700  0.11795629  0.29166662
  -0.00277990  0.21766470  0.45694343
   0.67169198  0.33489886  0.29417912
Direct configuration=     5
   0.69386349  0.93608631  0.05526487
   0.71359967  0.72701863  0.06513296
  -0.02747343  0.59754576  0.19459666
  -0.04370534  0.39582724  0.18648070
   0.33099313  0.27788963  0.12383019
   0.33333300  0.06339322  0.12500012
   0.71124746  0.93713710  0.31395686
   0.69906011  0.73550055  0.30786318
   0.00000000  0.60327378  0.45833338
  -0.02799618  0.39696767  0.44433528
   0.32881466  0.26239107  0.37274095
   0.33495513  0.05602797  0.37581119
   0.00000000  0.78462329  0.20833338
   0.31743469  0.88475158  0.11705097
  -0.00242819 -0.00261390  0.20711928
   0.34237023  0.45230929  0.12951874
   0.69194741  0.54928603  0.05430683
   0.29908085  0.67102343  0.10787405
   0.67755397  0.11254555  0.04711011
   0.00828251  0.21682036  0.21247463
   0.66666700  0.33333300  0.04166662
  -0.02333862  0.78408677  0.44666406
   0.32428608  0.88111369  0.37047666
   0.00000000  0.00000000  0.45833338
   0.34873247  0.44874058  0.38269986
   0.69351805  0.55203427  0.30509215
   0.37267967  0.66133128  0.39467346
   0.66666700  0.11795629  0.29166662
   0.00122114  0.21676151  0.45894394
   0.67156980  0.33515881  0.29411802
Direct configuration=     6
   0.69498082  0.93719764  0.05582353
   0.71337183  0.72694056  0.06501904
  -0.02193832  0.59730737  0.19736421
  -0.04727433  0.39564084  0.18469621
   0.33479327  0.27860395  0.12573026
   0.33333300  0.06339322  0.12500012
   0.71469815  0.93744716  0.31568220
   0.69658460  0.73573447  0.30662543
   0.00000000  0.60327378  0.45833338
  -0.02966579  0.39587536  0.44350048
   0.32870111  0.26230977  0.37268418
   0.32975385  0.05579275  0.37321055
   0.00000000  0.78462329  0.20833338
   0.31996005  0.88420992  0.11831365
   0.00097066 -0.00346460  0.20881871
   0.34185618  0.45308796  0.12926172
   0.68737457  0.54779530  0.05202041
   0.29342670  0.67017922  0.10504698
   0.67638333  0.11196723  0.04652479
   0.00372221  0.21723432  0.21019448
   0.66666700  0.33333300  0.04166662
  -0.01496294  0.78575403  0.45085190
   0.32567249  0.88002776  0.37116987
   0.00000000  0.00000000  0.45833338
   0.34622403  0.44916085  0.38144564
   0.69431561  0.55161023  0.30549093
   0.38689760  0.66006019  0.40178242
   0.66666700  0.11795629  0.29166662
   0.00474276  0.21579889  0.46070475
   0.66978306  0.33537503  0.29322466
Direct configuration=     7
   0.69535580  0.93757061  0.05601103
   0.71329536  0.72691437  0.06498080
  -0.02008069  0.59722736  0.19829303
  -0.04847211  0.39557828  0.18409732
   0.33606863  0.27884369  0.12636794
   0.33333300  0.06339322  0.12500012
   0.71585623  0.93755122  0.31626124
   0.69575380  0.73581297  0.30621002
   0.00000000  0.60327378  0.45833338
  -0.03022612  0.39550877  0.44322031
   0.32866301  0.26228248  0.37266513
   0.32800825  0.05571381  0.37233775
   0.00000000  0.78462329  0.20833338
   0.32080758  0.88402813  0.11873741
   0.00211135 -0.00375011  0.20938905
   0.34168367  0.45334929  0.12917546
   0.68583989  0.54729500  0.05125307
   0.29152912  0.66989589  0.10409819
   0.67599045  0.11177315  0.04632835
   0.00219173  0.21737325  0.20942924
   0.66666700  0.33333300  0.04166662
  -0.01215199  0.78631358  0.45225738
   0.32613779  0.87966331  0.37140252
   0.00000000  0.00000000  0.45833338
   0.34538218  0.44930190  0.38102471
   0.69458327  0.55146792  0.30562476
   0.39166926  0.65963360  0.40416825
   0.66666700  0.11795629  0.29166662
   0.00592464  0.21547582  0.46129570
   0.66918342  0.33544759  0.29292483
Direct configuration=     8
   0.69794497  0.93757171  0.05730561
   0.70786520  0.72706324  0.06226573
  -0.01948818  0.59613181  0.19858928
  -0.05003852  0.39632671  0.18331412
   0.33983813  0.27902420  0.12825269
   0.33333300  0.06339322  0.12500012
   0.71768570  0.93687344  0.31717598
   0.69991784  0.73729372  0.30829204
   0.00000000  0.60327378  0.45833338
  -0.03296607  0.39553071  0.44185034
   0.33212589  0.26131949  0.37439657
   0.32253830  0.05601346  0.36960278
   0.00000000  0.78462329  0.20833338
   0.32228463  0.88447174  0.11947594
   0.00551151 -0.00440790  0.21108913
   0.34095440  0.45401098  0.12881083
   0.68760153  0.54668427  0.05213389
   0.28765278  0.66826537  0.10216001
   0.67318853  0.11133694  0.04492739
  -0.00259695  0.21788038  0.20703490
   0.66666700  0.33333300  0.04166662
  -0.01031475  0.78694277  0.45317600
   0.32785569  0.87863849  0.37226147
   0.00000000  0.00000000  0.45833338
   0.34385315  0.44868324  0.38026020
   0.69208026  0.55038596  0.30437325
   0.40478676  0.65941048  0.41072701
   0.66666700  0.11795629  0.29166662
   0.00612939  0.21517823  0.46139807
   0.66700056  0.33554217  0.29183341
Direct configuration=     9
   0.70062776  0.93757285  0.05864700
   0.70223869  0.72721750  0.05945247
  -0.01887425  0.59499664  0.19889625
  -0.05166157  0.39710220  0.18250259
   0.34374392  0.27921124  0.13020559
   0.33333300  0.06339322  0.12500012
   0.71958133  0.93617115  0.31812379
   0.70423245  0.73882801  0.31044935
   0.00000000  0.60327378  0.45833338
  -0.03580510  0.39555344  0.44043083
   0.33571399  0.26032168  0.37619062
   0.31687056  0.05632394  0.36676891
   0.00000000  0.78462329  0.20833338
   0.32381509  0.88493139  0.12024117
   0.00903462 -0.00508947  0.21285069
   0.34019877  0.45469659  0.12843301
   0.68942687  0.54605146  0.05304656
   0.28363626  0.66657589  0.10015176
   0.67028530  0.11088496  0.04347577
  -0.00755880  0.21840585  0.20455398
   0.66666700  0.33333300  0.04166662
  -0.00841108  0.78759470  0.45412784
   0.32963571  0.87757661  0.37315148
   0.00000000  0.00000000  0.45833338
   0.34226882  0.44804220  0.37946804
   0.68948674  0.54926488  0.30307649
   0.41837859  0.65917929  0.41752292
   0.66666700  0.11795629  0.29166662
   0.00634155  0.21486987  0.46150415
   0.66473877  0.33564016  0.29070251
Direct configuration=    10
   0.70174161  0.93714298  0.05920393
   0.70262301  0.72602865  0.05964463
  -0.01922074  0.59431470  0.19872301
  -0.05148197  0.39769968  0.18259239
   0.34377611  0.27954729  0.13022168
   0.33333300  0.06339322  0.12500012
   0.72138957  0.93486378  0.31902791
   0.70633244  0.73932907  0.31149934
   0.00000000  0.60327378  0.45833338
  -0.03677468  0.39566696  0.43994603
   0.33515177  0.25976750  0.37590951
   0.31653920  0.05630230  0.36660322
   0.00000000  0.78462329  0.20833338
   0.32533240  0.88531813  0.12099983
   0.00988391 -0.00508691  0.21327533
   0.33897885  0.45548307  0.12782305
   0.69188513  0.54578925  0.05427569
   0.27857776  0.66681164  0.09762250
   0.66735495  0.11039444  0.04201060
  -0.00703885  0.21847388  0.20481395
   0.66666700  0.33333300  0.04166662
  -0.00657084  0.78825397  0.45504796
   0.33080341  0.87702289  0.37373533
   0.00000000  0.00000000  0.45833338
   0.34028487  0.44769984  0.37847606
   0.68942432  0.54857076  0.30304529
   0.42372041  0.66063124  0.42019383
   0.66666700  0.11795629  0.29166662
   0.00686882  0.21432952  0.46176778
   0.66456150  0.33560691  0.29061387
Direct configuration=    11
   0.70268064  0.93678058  0.05967345
   0.70294702  0.72502638  0.05980663
  -0.01951284  0.59373979  0.19857695
  -0.05133057  0.39820339  0.18266809
   0.34380324  0.27983059  0.13023525
   0.33333300  0.06339322  0.12500012
   0.72291402  0.93376159  0.31979013
   0.70810284  0.73975149  0.31238455
   0.00000000  0.60327378  0.45833338
  -0.03759210  0.39576267  0.43953733
   0.33467778  0.25930030  0.37567251
   0.31625984  0.05628406  0.36646354
   0.00000000  0.78462329  0.20833338
   0.32661158  0.88564418  0.12163941
   0.01059992 -0.00508474  0.21363333
   0.33795040  0.45614611  0.12730882
   0.69395758  0.54556818  0.05531191
   0.27431315  0.66701039  0.09549020
   0.66488450  0.10998090  0.04077537
  -0.00660050  0.21853123  0.20503313
   0.66666700  0.33333300  0.04166662
  -0.00501942  0.78880978  0.45582367
   0.33178785  0.87655607  0.37422755
   0.00000000  0.00000000  0.45833338
   0.33861229  0.44741121  0.37763977
   0.68937170  0.54798559  0.30301898
   0.42822386  0.66185531  0.42244556
   0.66666700  0.11795629  0.29166662
   0.00731333  0.21387397  0.46199004
   0.66441205  0.33557887  0.29053915
Direct configuration=    12
   0.70249120  0.93681933  0.05957872
   0.70344397  0.72483695  0.06005511
  -0.01505216  0.59368325  0.20080730
  -0.05138410  0.39885178  0.18264132
   0.34211083  0.28030125  0.12938904
   0.33333300  0.06339322  0.12500012
   0.72447642  0.93302485  0.32057134
   0.70997953  0.73997131  0.31332289
   0.00000000  0.60327378  0.45833338
  -0.03756224  0.39559132  0.43955225
   0.33412584  0.25882865  0.37539654
   0.31814962  0.05590865  0.36740843
   0.00000000  0.78462329  0.20833338
   0.33009050  0.88527353  0.12337888
   0.01112747 -0.00509329  0.21389711
   0.33687232  0.45713073  0.12676979
   0.69183244  0.54453637  0.05424935
   0.27013865  0.66644792  0.09340295
   0.66095440  0.10920441  0.03881032
  -0.00502159  0.21824656  0.20582258
   0.66666700  0.33333300  0.04166662
  -0.00251211  0.78969013  0.45707732
   0.33474858  0.87522323  0.37570792
   0.00000000  0.00000000  0.45833338
   0.33499139  0.44750321  0.37582932
   0.69227622  0.54763948  0.30447123
   0.43349346  0.66340996  0.42508035
   0.66666700  0.11795629  0.29166662
   0.00742521  0.21300883  0.46204598
   0.66494661  0.33559800  0.29080643
Direct configuration=    13
   0.70247197  0.93682326  0.05956911
   0.70349442  0.72481773  0.06008033
  -0.01459936  0.59367751  0.20103370
  -0.05138954  0.39891759  0.18263861
   0.34193904  0.28034903  0.12930314
   0.33333300  0.06339322  0.12500012
   0.72463502  0.93295007  0.32065063
   0.71017003  0.73999362  0.31341814
   0.00000000  0.60327378  0.45833338
  -0.03755921  0.39557392  0.43955377
   0.33406981  0.25878078  0.37536853
   0.31834145  0.05587054  0.36750435
   0.00000000  0.78462329  0.20833338
   0.33044364  0.88523590  0.12355545
   0.01118102 -0.00509416  0.21392389
   0.33676289  0.45723068  0.12671507
   0.69161672  0.54443163  0.05414149
   0.26971491  0.66639082  0.09319108
   0.66055546  0.10912559  0.03861086
  -0.00486132  0.21821766  0.20590271
   0.66666700  0.33333300  0.04166662
  -0.00225760  0.78977949  0.45720458
   0.33504912  0.87508793  0.37585819
   0.00000000  0.00000000  0.45833338
   0.33462384  0.44751255  0.37564554
   0.69257105  0.54760435  0.30461865
   0.43402837  0.66356777  0.42534781
   0.66666700  0.11795629  0.29166662
   0.00743657  0.21292101  0.46205166
   0.66500088  0.33559994  0.29083356
Direct configuration=    14
   0.70318465  0.93678748  0.05992545
   0.70371695  0.72550890  0.06019160
  -0.01517203  0.59289990  0.20074736
  -0.05196250  0.39942803  0.18235212
   0.34012993  0.28050060  0.12839859
   0.33333300  0.06339322  0.12500012
   0.72590665  0.93270411  0.32128645
   0.71334615  0.74020777  0.31500620
   0.00000000  0.60327378  0.45833338
  -0.03806317  0.39558421  0.43930179
   0.33511467  0.25830957  0.37589096
   0.32097922  0.05550036  0.36882324
   0.00000000  0.78462329  0.20833338
   0.33358440  0.88477696  0.12512582
   0.01153040 -0.00540023  0.21409857
   0.33636133  0.45818080  0.12651429
   0.69489582  0.54427662  0.05578103
   0.26750411  0.66513987  0.09208568
   0.65674899  0.10819275  0.03670762
  -0.00409347  0.21788382  0.20628664
   0.66666700  0.33333300  0.04166662
  -0.00189366  0.79033144  0.45738654
   0.33836267  0.87361082  0.37751496
   0.00000000  0.00000000  0.45833338
   0.33157286  0.44758823  0.37412005
   0.69587002  0.54761963  0.30626813
   0.43840642  0.66419880  0.42753684
   0.66666700  0.11795629  0.29166662
   0.00631120  0.21207902  0.46148897
   0.66557684  0.33575729  0.29112154
Direct configuration=    15
   0.70318090  0.93678767  0.05992357
   0.70371578  0.72550526  0.06019101
  -0.01516901  0.59290400  0.20074887
  -0.05195948  0.39942534  0.18235363
   0.34013947  0.28049980  0.12840336
   0.33333300  0.06339322  0.12500012
   0.72589994  0.93270541  0.32128310
   0.71332941  0.74020664  0.31499783
   0.00000000  0.60327378  0.45833338
  -0.03806051  0.39558416  0.43930312
   0.33510916  0.25831205  0.37588821
   0.32096532  0.05550231  0.36881628
   0.00000000  0.78462329  0.20833338
   0.33356785  0.88477938  0.12511755
   0.01152856 -0.00539861  0.21409765
   0.33636345  0.45817579  0.12651535
   0.69487854  0.54427744  0.05577239
   0.26751576  0.66514646  0.09209151
   0.65676905  0.10819766  0.03671765
  -0.00409751  0.21788558  0.20628462
   0.66666700  0.33333300  0.04166662
  -0.00189558  0.79032853  0.45738558
   0.33834521  0.87361860  0.37750623
   0.00000000  0.00000000  0.45833338
   0.33158894  0.44758783  0.37412809
   0.69585263  0.54761955  0.30625944
   0.43838335  0.66419548  0.42752530
   0.66666700  0.11795629  0.29166662
   0.00631713  0.21208346  0.46149194
   0.66557380  0.33575647  0.29112003
Direct configuration=    16
   0.70528682  0.93638286  0.06097654
   0.70450232  0.72533273  0.06058429
  -0.01502323  0.59287836  0.20082176
  -0.05262865  0.39967210  0.18201905
   0.34008810  0.28023165  0.12837767
   0.33333300  0.06339322  0.12500012
   0.72700446  0.93230234  0.32183536
   0.71428073  0.74000253  0.31547349
   0.00000000  0.60327378  0.45833338
  -0.03946409  0.39585928  0.43860133
   0.33618147  0.25802262  0.37642436
   0.32202423  0.05551125  0.36934574
   0.00000000  0.78462329  0.20833338
   0.33451890  0.88475527  0.12559308
   0.01205118 -0.00583236  0.21435897
   0.33703264  0.45849271  0.12684995
   0.69634017  0.54413058  0.05650321
   0.26636561  0.66499038  0.09151643
   0.65470838  0.10753225  0.03568731
  -0.00440597  0.21790147  0.20613039
   0.66666700  0.33333300  0.04166662
  -0.00164846  0.79070171  0.45750914
   0.33933792  0.87326094  0.37800258
   0.00000000  0.00000000  0.45833338
   0.33077928  0.44753693  0.37372327
   0.69742896  0.54760816  0.30704760
   0.44015723  0.66378162  0.42841224
   0.66666700  0.11795629  0.29166662
   0.00496364  0.21153846  0.46081520
   0.66529022  0.33588271  0.29097823
Direct configuration=    17
   0.70721498  0.93601223  0.06194062
   0.70522247  0.72517477  0.06094436
  -0.01488975  0.59285489  0.20088850
  -0.05324133  0.39989803  0.18171271
   0.34004107  0.27998613  0.12835416
   0.33333300  0.06339322  0.12500012
   0.72801575  0.93193329  0.32234100
   0.71515175  0.73981564  0.31590900
   0.00000000  0.60327378  0.45833338
  -0.04074918  0.39611118  0.43795878
   0.33716326  0.25775763  0.37691526
   0.32299375  0.05551944  0.36983050
   0.00000000  0.78462329  0.20833338
   0.33538968  0.88473319  0.12602847
   0.01252969 -0.00622949  0.21459822
   0.33764535  0.45878288  0.12715630
   0.69767842  0.54399612  0.05717233
   0.26531255  0.66484748  0.09098990
   0.65282165  0.10692301  0.03474395
  -0.00468838  0.21791602  0.20598919
   0.66666700  0.33333300  0.04166662
  -0.00142221  0.79104340  0.45762227
   0.34024683  0.87293346  0.37845704
   0.00000000  0.00000000  0.45833338
   0.33003797  0.44749032  0.37335261
   0.69887222  0.54759772  0.30776924
   0.44178137  0.66340270  0.42922431
   0.66666700  0.11795629  0.29166662
   0.00372441  0.21103946  0.46019558
   0.66503057  0.33599831  0.29084841
Direct configuration=    18
   0.70852872  0.93584003  0.06259748
   0.70556430  0.72491034  0.06111528
  -0.01314956  0.59311996  0.20175859
  -0.05400399  0.39993563  0.18133138
   0.34028814  0.27982362  0.12847769
   0.33333300  0.06339322  0.12500012
   0.72915454  0.93156552  0.32291040
   0.71642519  0.73986154  0.31654572
   0.00000000  0.60327378  0.45833338
  -0.04166817  0.39618753  0.43749929
   0.33733393  0.25757523  0.37700059
   0.32327949  0.05557002  0.36997337
   0.00000000  0.78462329  0.20833338
   0.33716571  0.88430228  0.12691648
   0.01387525 -0.00657832  0.21527100
   0.33846905  0.45902580  0.12756815
   0.69784124  0.54367570  0.05725375
   0.26474588  0.66478518  0.09070656
   0.65056320  0.10626254  0.03361472
  -0.00468529  0.21801174  0.20599073
   0.66666700  0.33333300  0.04166662
  -0.00222087  0.79121826  0.45722294
   0.34105227  0.87270168  0.37885976
   0.00000000  0.00000000  0.45833338
   0.32889979  0.44774728  0.37278352
   0.69909644  0.54754707  0.30788134
   0.44247516  0.66314850  0.42957121
   0.66666700  0.11795629  0.29166662
   0.00260245  0.21032662  0.45963460
   0.66420032  0.33602865  0.29043329
Direct configuration=    19
   0.70929125  0.93574008  0.06297875
   0.70576271  0.72475685  0.06121448
  -0.01213950  0.59327382  0.20226362
  -0.05444666  0.39995746  0.18111004
   0.34043155  0.27972930  0.12854940
   0.33333300  0.06339322  0.12500012
   0.72981553  0.93135205  0.32324089
   0.71716433  0.73988818  0.31691529
   0.00000000  0.60327378  0.45833338
  -0.04220157  0.39623184  0.43723259
   0.33743299  0.25746936  0.37705012
   0.32344533  0.05559937  0.37005629
   0.00000000  0.78462329  0.20833338
   0.33819658  0.88405216  0.12743191
   0.01465625 -0.00678080  0.21566150
   0.33894715  0.45916680  0.12780720
   0.69793575  0.54348971  0.05730100
   0.26441696  0.66474902  0.09054211
   0.64925232  0.10587918  0.03295929
  -0.00468350  0.21806730  0.20599162
   0.66666700  0.33333300  0.04166662
  -0.00268444  0.79131976  0.45699116
   0.34151978  0.87256714  0.37909351
   0.00000000  0.00000000  0.45833338
   0.32823916  0.44789642  0.37245320
   0.69922658  0.54751767  0.30794641
   0.44287786  0.66300095  0.42977255
   0.66666700  0.11795629  0.29166662
   0.00195124  0.20991287  0.45930899
   0.66371842  0.33604626  0.29019234
Direct configuration=    20
   0.71058724  0.93557911  0.06362674
   0.70575023  0.72465921  0.06120824
  -0.01181864  0.59326407  0.20242405
  -0.05517038  0.39984877  0.18074818
   0.34039290  0.27973150  0.12853007
   0.33333300  0.06339322  0.12500012
   0.73077010  0.93112918  0.32371817
   0.71725179  0.73994392  0.31695902
   0.00000000  0.60327378  0.45833338
  -0.04304918  0.39628995  0.43680879
   0.33748668  0.25725889  0.37707696
   0.32334007  0.05563525  0.37000366
   0.00000000  0.78462329  0.20833338
   0.34020256  0.88347811  0.12843491
   0.01625292 -0.00705553  0.21645983
   0.33965703  0.45940013  0.12816214
   0.69984133  0.54346908  0.05825379
   0.26455637  0.66453719  0.09061181
   0.64679975  0.10522517  0.03173300
  -0.00443586  0.21815665  0.20611544
   0.66666700  0.33333300  0.04166662
  -0.00271474  0.79156024  0.45697600
   0.34236798  0.87233262  0.37951762
   0.00000000  0.00000000  0.45833338
   0.32706826  0.44820893  0.37186775
   0.69816280  0.54747560  0.30741453
   0.44253207  0.66300688  0.42959966
   0.66666700  0.11795629  0.29166662
   0.00060418  0.20918175  0.45863547
   0.66284969  0.33602724  0.28975797
