  30  30   1   0
  0.6786351E+02  0.4330646E-09  0.3133730E-08  0.1732258E-08  0.5000000E-15
  1.000000000000000E-004
  CAR 
 Tetradymite Slab                        
      7.70118635    -14.04172586  301      0.47612810      1.00000000
    -14.042  0.0000E+00  0.0000E+00
    -13.969  0.0000E+00  0.0000E+00
    -13.897  0.0000E+00  0.0000E+00
    -13.824  0.0000E+00  0.0000E+00
    -13.752  0.0000E+00  0.0000E+00
    -13.679 -0.2012E-29 -0.1458E-30
    -13.607 -0.6795E-27 -0.4939E-28
    -13.534 -0.1668E-24 -0.1214E-25
    -13.462 -0.3147E-22 -0.2293E-23
    -13.389 -0.4562E-20 -0.3329E-21
    -13.317 -0.5080E-18 -0.3715E-19
    -13.244 -0.4345E-16 -0.3186E-17
    -13.172 -0.2765E-14 -0.2036E-15
    -13.100 -0.1390E-12 -0.1027E-13
    -13.027 -0.5350E-11 -0.3980E-12
    -12.955 -0.1579E-09 -0.1184E-10
    -12.882 -0.3565E-08 -0.2702E-09
    -12.810 -0.6153E-07 -0.4730E-08
    -12.737 -0.8100E-06 -0.6343E-07
    -12.665 -0.8108E-05 -0.6511E-06
    -12.592 -0.6145E-04 -0.5105E-05
    -12.520 -0.3501E-03 -0.3048E-04
    -12.447 -0.1481E-02 -0.1378E-03
    -12.375 -0.4539E-02 -0.4668E-03
    -12.302 -0.9455E-02 -0.1152E-02
    -12.230 -0.1039E-01 -0.1905E-02
    -12.157  0.7950E-02 -0.1329E-02
    -12.085  0.6365E-01  0.3284E-02
    -12.012  0.1592E+00  0.1482E-01
    -11.940  0.2695E+00  0.3435E-01
    -11.867  0.3559E+00  0.6015E-01
    -11.795  0.3986E+00  0.8903E-01
    -11.722  0.4107E+00  0.1188E+00
    -11.650  0.4219E+00  0.1494E+00
    -11.578  0.4604E+00  0.1827E+00
    -11.505  0.5385E+00  0.2218E+00
    -11.433  0.6289E+00  0.2674E+00
    -11.360  0.6723E+00  0.3161E+00
    -11.288  0.6459E+00  0.3629E+00
    -11.215  0.6056E+00  0.4068E+00
    -11.143  0.6266E+00  0.4522E+00
    -11.070  0.7219E+00  0.5045E+00
    -10.998  0.8359E+00  0.5651E+00
    -10.925  0.8900E+00  0.6296E+00
    -10.853  0.8381E+00  0.6904E+00
    -10.780  0.7162E+00  0.7423E+00
    -10.708  0.6278E+00  0.7878E+00
    -10.635  0.6531E+00  0.8351E+00
    -10.563  0.7931E+00  0.8926E+00
    -10.490  0.9983E+00  0.9649E+00
    -10.418  0.1206E+01  0.1052E+01
    -10.345  0.1353E+01  0.1150E+01
    -10.273  0.1396E+01  0.1252E+01
    -10.200  0.1338E+01  0.1348E+01
    -10.128  0.1212E+01  0.1436E+01
    -10.056  0.1056E+01  0.1513E+01
     -9.983  0.9031E+00  0.1578E+01
     -9.911  0.7800E+00  0.1635E+01
     -9.838  0.6935E+00  0.1685E+01
     -9.766  0.6152E+00  0.1730E+01
     -9.693  0.4983E+00  0.1766E+01
     -9.621  0.3295E+00  0.1790E+01
     -9.548  0.1547E+00  0.1801E+01
     -9.476  0.3425E-01  0.1803E+01
     -9.403 -0.1548E-01  0.1802E+01
     -9.331 -0.2190E-01  0.1801E+01
     -9.258 -0.1630E-01  0.1800E+01
     -9.186 -0.8478E-02  0.1799E+01
     -9.113  0.1100E-01  0.1800E+01
     -9.041  0.5365E-01  0.1804E+01
     -8.968  0.1128E+00  0.1812E+01
     -8.896  0.1580E+00  0.1823E+01
     -8.823  0.1624E+00  0.1835E+01
     -8.751  0.1437E+00  0.1845E+01
     -8.678  0.1550E+00  0.1857E+01
     -8.606  0.2204E+00  0.1873E+01
     -8.534  0.3138E+00  0.1895E+01
     -8.461  0.4220E+00  0.1926E+01
     -8.389  0.5693E+00  0.1967E+01
     -8.316  0.7441E+00  0.2021E+01
     -8.244  0.8673E+00  0.2084E+01
     -8.171  0.8821E+00  0.2148E+01
     -8.099  0.8300E+00  0.2208E+01
     -8.026  0.8146E+00  0.2267E+01
     -7.954  0.9012E+00  0.2332E+01
     -7.881  0.1037E+01  0.2408E+01
     -7.809  0.1079E+01  0.2486E+01
     -7.736  0.9555E+00  0.2555E+01
     -7.664  0.7635E+00  0.2610E+01
     -7.591  0.6553E+00  0.2658E+01
     -7.519  0.6585E+00  0.2706E+01
     -7.446  0.6671E+00  0.2754E+01
     -7.374  0.5878E+00  0.2797E+01
     -7.301  0.4422E+00  0.2829E+01
     -7.229  0.3180E+00  0.2852E+01
     -7.156  0.2621E+00  0.2871E+01
     -7.084  0.2454E+00  0.2888E+01
     -7.012  0.2147E+00  0.2904E+01
     -6.939  0.1615E+00  0.2916E+01
     -6.867  0.1251E+00  0.2925E+01
     -6.794  0.1338E+00  0.2934E+01
     -6.722  0.1713E+00  0.2947E+01
     -6.649  0.2005E+00  0.2961E+01
     -6.577  0.1989E+00  0.2976E+01
     -6.504  0.1656E+00  0.2988E+01
     -6.432  0.1120E+00  0.2996E+01
     -6.359  0.5577E-01  0.3000E+01
     -6.287  0.1492E-01  0.3001E+01
     -6.214 -0.3507E-02  0.3001E+01
     -6.142 -0.6183E-02  0.3000E+01
     -6.069 -0.3553E-02  0.3000E+01
     -5.997 -0.1292E-02  0.3000E+01
     -5.924 -0.3319E-03  0.3000E+01
     -5.852 -0.6257E-04  0.3000E+01
     -5.779 -0.8818E-05  0.3000E+01
     -5.707 -0.9380E-06  0.3000E+01
     -5.634 -0.7573E-07  0.3000E+01
     -5.562 -0.4658E-08  0.3000E+01
     -5.490 -0.2187E-09  0.3000E+01
     -5.417 -0.7852E-11  0.3000E+01
     -5.345 -0.2185E-12  0.3000E+01
     -5.272 -0.1445E-12  0.3000E+01
     -5.200 -0.5443E-11  0.3000E+01
     -5.127 -0.1616E-09  0.3000E+01
     -5.055 -0.3662E-08  0.3000E+01
     -4.982 -0.6322E-07  0.3000E+01
     -4.910 -0.8295E-06  0.3000E+01
     -4.837 -0.8247E-05  0.3000E+01
     -4.765 -0.6183E-04  0.3000E+01
     -4.692 -0.3466E-03  0.3000E+01
     -4.620 -0.1430E-02  0.3000E+01
     -4.547 -0.4194E-02  0.3000E+01
     -4.475 -0.7950E-02  0.2999E+01
     -4.402 -0.6005E-02  0.2999E+01
     -4.330  0.1534E-01  0.3000E+01
     -4.257  0.6361E-01  0.3004E+01
     -4.185  0.1212E+00  0.3013E+01
     -4.112  0.1595E+00  0.3025E+01
     -4.040  0.1925E+00  0.3039E+01
     -3.968  0.2924E+00  0.3060E+01
     -3.895  0.5089E+00  0.3097E+01
     -3.823  0.7827E+00  0.3153E+01
     -3.750  0.9823E+00  0.3225E+01
     -3.678  0.1035E+01  0.3300E+01
     -3.605  0.1001E+01  0.3372E+01
     -3.533  0.1003E+01  0.3445E+01
     -3.460  0.1074E+01  0.3523E+01
     -3.388  0.1135E+01  0.3605E+01
     -3.315  0.1120E+01  0.3686E+01
     -3.243  0.1072E+01  0.3764E+01
     -3.170  0.1062E+01  0.3841E+01
     -3.098  0.1080E+01  0.3919E+01
     -3.025  0.1074E+01  0.3997E+01
     -2.953  0.1058E+01  0.4074E+01
     -2.880  0.1117E+01  0.4155E+01
     -2.808  0.1281E+01  0.4247E+01
     -2.735  0.1458E+01  0.4353E+01
     -2.663  0.1546E+01  0.4465E+01
     -2.590  0.1542E+01  0.4577E+01
     -2.518  0.1504E+01  0.4686E+01
     -2.446  0.1463E+01  0.4792E+01
     -2.373  0.1430E+01  0.4896E+01
     -2.301  0.1413E+01  0.4998E+01
     -2.228  0.1395E+01  0.5099E+01
     -2.156  0.1350E+01  0.5197E+01
     -2.083  0.1295E+01  0.5291E+01
     -2.011  0.1295E+01  0.5385E+01
     -1.938  0.1379E+01  0.5485E+01
     -1.866  0.1495E+01  0.5593E+01
     -1.793  0.1557E+01  0.5706E+01
     -1.721  0.1539E+01  0.5817E+01
     -1.648  0.1477E+01  0.5924E+01
     -1.576  0.1405E+01  0.6026E+01
     -1.503  0.1305E+01  0.6121E+01
     -1.431  0.1166E+01  0.6205E+01
     -1.358  0.1038E+01  0.6281E+01
     -1.286  0.9862E+00  0.6352E+01
     -1.213  0.1016E+01  0.6426E+01
     -1.141  0.1064E+01  0.6503E+01
     -1.068  0.1063E+01  0.6580E+01
     -0.996  0.1015E+01  0.6653E+01
     -0.924  0.9775E+00  0.6724E+01
     -0.851  0.9871E+00  0.6796E+01
     -0.779  0.1018E+01  0.6870E+01
     -0.706  0.1040E+01  0.6945E+01
     -0.634  0.1064E+01  0.7022E+01
     -0.561  0.1118E+01  0.7103E+01
     -0.489  0.1206E+01  0.7191E+01
     -0.416  0.1315E+01  0.7286E+01
     -0.344  0.1426E+01  0.7389E+01
     -0.271  0.1527E+01  0.7500E+01
     -0.199  0.1606E+01  0.7616E+01
     -0.126  0.1657E+01  0.7736E+01
     -0.054  0.1648E+01  0.7856E+01
      0.019  0.1531E+01  0.7967E+01
      0.091  0.1311E+01  0.8062E+01
      0.164  0.1078E+01  0.8140E+01
      0.236  0.9274E+00  0.8207E+01
      0.309  0.8705E+00  0.8270E+01
      0.381  0.8374E+00  0.8331E+01
      0.454  0.7508E+00  0.8385E+01
      0.526  0.5922E+00  0.8428E+01
      0.599  0.4099E+00  0.8458E+01
      0.671  0.2723E+00  0.8478E+01
      0.743  0.2359E+00  0.8495E+01
      0.816  0.3280E+00  0.8518E+01
      0.888  0.5121E+00  0.8556E+01
      0.961  0.6854E+00  0.8605E+01
      1.033  0.7574E+00  0.8660E+01
      1.106  0.7231E+00  0.8713E+01
      1.178  0.6323E+00  0.8758E+01
      1.251  0.5163E+00  0.8796E+01
      1.323  0.3977E+00  0.8825E+01
      1.396  0.3484E+00  0.8850E+01
      1.468  0.4409E+00  0.8882E+01
      1.541  0.6268E+00  0.8927E+01
      1.613  0.7619E+00  0.8982E+01
      1.686  0.7882E+00  0.9040E+01
      1.758  0.7992E+00  0.9098E+01
      1.831  0.8900E+00  0.9162E+01
      1.903  0.1039E+01  0.9237E+01
      1.976  0.1175E+01  0.9322E+01
      2.048  0.1279E+01  0.9415E+01
      2.121  0.1382E+01  0.9515E+01
      2.193  0.1491E+01  0.9623E+01
      2.265  0.1574E+01  0.9737E+01
      2.338  0.1617E+01  0.9855E+01
      2.410  0.1660E+01  0.9975E+01
      2.483  0.1736E+01  0.1010E+02
      2.555  0.1797E+01  0.1023E+02
      2.628  0.1751E+01  0.1036E+02
      2.700  0.1581E+01  0.1047E+02
      2.773  0.1366E+01  0.1057E+02
      2.845  0.1212E+01  0.1066E+02
      2.918  0.1169E+01  0.1074E+02
      2.990  0.1216E+01  0.1083E+02
      3.063  0.1284E+01  0.1093E+02
      3.135  0.1310E+01  0.1102E+02
      3.208  0.1280E+01  0.1111E+02
      3.280  0.1212E+01  0.1120E+02
      3.353  0.1133E+01  0.1128E+02
      3.425  0.1071E+01  0.1136E+02
      3.498  0.1046E+01  0.1144E+02
      3.570  0.1025E+01  0.1151E+02
      3.643  0.9578E+00  0.1158E+02
      3.715  0.8490E+00  0.1164E+02
      3.787  0.7614E+00  0.1170E+02
      3.860  0.7231E+00  0.1175E+02
      3.932  0.6941E+00  0.1180E+02
      4.005  0.6417E+00  0.1185E+02
      4.077  0.5896E+00  0.1189E+02
      4.150  0.5584E+00  0.1193E+02
      4.222  0.5151E+00  0.1197E+02
      4.295  0.4273E+00  0.1200E+02
      4.367  0.3257E+00  0.1202E+02
      4.440  0.2745E+00  0.1204E+02
      4.512  0.2973E+00  0.1206E+02
      4.585  0.3665E+00  0.1209E+02
      4.657  0.4530E+00  0.1212E+02
      4.730  0.5524E+00  0.1216E+02
      4.802  0.6634E+00  0.1221E+02
      4.875  0.7731E+00  0.1227E+02
      4.947  0.8745E+00  0.1233E+02
      5.020  0.9712E+00  0.1240E+02
      5.092  0.1047E+01  0.1248E+02
      5.165  0.1050E+01  0.1255E+02
      5.237  0.9417E+00  0.1262E+02
      5.309  0.7500E+00  0.1267E+02
      5.382  0.5464E+00  0.1271E+02
      5.454  0.3817E+00  0.1274E+02
      5.527  0.2709E+00  0.1276E+02
      5.599  0.2068E+00  0.1278E+02
      5.672  0.1635E+00  0.1279E+02
      5.744  0.1133E+00  0.1280E+02
      5.817  0.5545E-01  0.1280E+02
      5.889  0.1167E-01  0.1280E+02
      5.962 -0.6526E-02  0.1280E+02
      6.034 -0.7442E-02  0.1280E+02
      6.107 -0.3732E-02  0.1280E+02
      6.179 -0.1219E-02  0.1280E+02
      6.252 -0.2832E-03  0.1280E+02
      6.324 -0.4839E-04  0.1280E+02
      6.397 -0.6192E-05  0.1280E+02
      6.469 -0.5989E-06  0.1280E+02
      6.542 -0.4405E-07  0.1280E+02
      6.614 -0.2473E-08  0.1280E+02
      6.687 -0.1062E-09  0.1280E+02
      6.759 -0.3497E-11  0.1280E+02
      6.831 -0.8830E-13  0.1280E+02
      6.904 -0.1715E-14  0.1280E+02
      6.976 -0.2553E-16  0.1280E+02
      7.049  0.0000E+00  0.1280E+02
      7.121  0.0000E+00  0.1280E+02
      7.194  0.0000E+00  0.1280E+02
      7.266  0.0000E+00  0.1280E+02
      7.339  0.0000E+00  0.1280E+02
      7.411  0.0000E+00  0.1280E+02
      7.484  0.0000E+00  0.1280E+02
      7.556  0.0000E+00  0.1280E+02
      7.629  0.0000E+00  0.1280E+02
      7.701  0.0000E+00  0.1280E+02
      7.70118635    -14.04172586  301      0.47612810      1.00000000
    -14.042  0.0000E+00  0.0000E+00  0.0000E+00  0.0000E+00  0.0000E+00  0.0000E+00  0.0000E+00  0.0000E+00  0.0000E+00
    -13.969  0.0000E+00  0.0000E+00  0.0000E+00  0.0000E+00  0.0000E+00  0.0000E+00  0.0000E+00  0.0000E+00  0.0000E+00
    -13.897  0.0000E+00  0.0000E+00  0.0000E+00  0.0000E+00  0.0000E+00  0.0000E+00  0.0000E+00  0.0000E+00  0.0000E+00
    -13.824  0.0000E+00  0.0000E+00  0.0000E+00  0.0000E+00  0.0000E+00  0.0000E+00  0.0000E+00  0.0000E+00  0.0000E+00
    -13.752  0.0000E+00  0.0000E+00  0.0000E+00  0.0000E+00  0.0000E+00  0.0000E+00  0.0000E+00  0.0000E+00  0.0000E+00
    -13.679 -0.5617E-32 -0.1435E-33 -0.1244E-33 -0.4146E-34 -0.8688E-36 -0.2606E-35 -0.8879E-36 -0.5440E-35 -0.1127E-35
    -13.607 -0.1934E-29 -0.4924E-31 -0.4291E-31 -0.1462E-31 -0.3205E-33 -0.9001E-33 -0.3130E-33 -0.1869E-32 -0.3893E-33
    -13.534 -0.4801E-27 -0.1220E-28 -0.1065E-28 -0.3644E-29 -0.8033E-31 -0.2232E-30 -0.7792E-31 -0.4636E-30 -0.9672E-31
    -13.462 -0.9182E-25 -0.2330E-26 -0.2037E-26 -0.6996E-27 -0.1552E-28 -0.4264E-28 -0.1495E-28 -0.8857E-28 -0.1851E-28
    -13.389 -0.1357E-22 -0.3436E-24 -0.3012E-24 -0.1039E-24 -0.2318E-26 -0.6289E-26 -0.2216E-26 -0.1307E-25 -0.2739E-26
    -13.317 -0.1555E-20 -0.3924E-22 -0.3450E-22 -0.1195E-22 -0.2683E-24 -0.7178E-24 -0.2544E-24 -0.1495E-23 -0.3142E-24
    -13.244 -0.1385E-18 -0.3479E-20 -0.3073E-20 -0.1070E-20 -0.2414E-22 -0.6359E-22 -0.2270E-22 -0.1328E-21 -0.2804E-22
    -13.172 -0.9397E-17 -0.2343E-18 -0.2082E-18 -0.7295E-19 -0.1650E-20 -0.4273E-20 -0.1539E-20 -0.8966E-20 -0.1905E-20
    -13.100 -0.5118E-15 -0.1265E-16 -0.1133E-16 -0.3995E-17 -0.9049E-19 -0.2299E-18 -0.8369E-19 -0.4857E-18 -0.1040E-18
    -13.027 -0.2204E-13 -0.5383E-15 -0.4873E-15 -0.1729E-15 -0.3908E-17 -0.9737E-17 -0.3588E-17 -0.2076E-16 -0.4489E-17
    -12.955 -0.7592E-12 -0.1826E-13 -0.1676E-13 -0.5983E-14 -0.1345E-15 -0.3280E-15 -0.1227E-15 -0.7085E-15 -0.1550E-15
    -12.882 -0.2102E-10 -0.4966E-12 -0.4631E-12 -0.1664E-12 -0.3710E-14 -0.8837E-14 -0.3364E-14 -0.1940E-13 -0.4304E-14
    -12.810 -0.4700E-09 -0.1088E-10 -0.1033E-10 -0.3740E-11 -0.8246E-13 -0.1915E-12 -0.7434E-13 -0.4281E-12 -0.9643E-13
    -12.737 -0.8491E-08 -0.1923E-09 -0.1863E-09 -0.6794E-10 -0.1482E-11 -0.3348E-11 -0.1327E-11 -0.7628E-11 -0.1745E-11
    -12.665 -0.1234E-06 -0.2736E-08 -0.2705E-08 -0.9945E-09 -0.2152E-10 -0.4714E-10 -0.1911E-10 -0.1094E-09 -0.2539E-10
    -12.592 -0.1432E-05 -0.3113E-07 -0.3137E-07 -0.1164E-07 -0.2510E-09 -0.5314E-09 -0.2204E-09 -0.1253E-08 -0.2949E-09
    -12.520 -0.1312E-04 -0.2801E-06 -0.2873E-06 -0.1078E-06 -0.2331E-08 -0.4749E-08 -0.2016E-08 -0.1135E-07 -0.2703E-08
    -12.447 -0.9360E-04 -0.1966E-05 -0.2052E-05 -0.7805E-06 -0.1705E-07 -0.3322E-07 -0.1445E-07 -0.8011E-07 -0.1929E-07
    -12.375 -0.5113E-03 -0.1059E-04 -0.1123E-04 -0.4346E-05 -0.9686E-07 -0.1788E-06 -0.7990E-07 -0.4335E-06 -0.1055E-06
    -12.302 -0.2088E-02 -0.4264E-04 -0.4597E-04 -0.1823E-04 -0.4200E-06 -0.7234E-06 -0.3338E-06 -0.1754E-05 -0.4315E-06
    -12.230 -0.6106E-02 -0.1228E-03 -0.1351E-03 -0.5560E-04 -0.1355E-05 -0.2112E-05 -0.1018E-05 -0.5078E-05 -0.1266E-05
    -12.157 -0.1149E-01 -0.2258E-03 -0.2569E-03 -0.1139E-03 -0.3082E-05 -0.4024E-05 -0.2102E-05 -0.9414E-05 -0.2404E-05
    -12.085 -0.7890E-02 -0.1399E-03 -0.1870E-03 -0.1133E-03 -0.4176E-05 -0.3090E-05 -0.2175E-05 -0.6071E-05 -0.1743E-05
    -12.012  0.2656E-01  0.5677E-03  0.5589E-03  0.1451E-03  0.1049E-06  0.8007E-05  0.2350E-05  0.2290E-04  0.5222E-05
    -11.940  0.1066E+00  0.2158E-02  0.2327E-02  0.8589E-03  0.1660E-04  0.3463E-04  0.1518E-04  0.8869E-04  0.2163E-04
    -11.867  0.2094E+00  0.4122E-02  0.4660E-02  0.1955E-02  0.4797E-04  0.7008E-04  0.3532E-04  0.1708E-03  0.4300E-04
    -11.795  0.2796E+00  0.5331E-02  0.6358E-02  0.3014E-02  0.8715E-04  0.9664E-04  0.5546E-04  0.2230E-03  0.5811E-04
    -11.722  0.2818E+00  0.5185E-02  0.6600E-02  0.3642E-02  0.1237E-03  0.1047E-03  0.6896E-04  0.2199E-03  0.6019E-04
    -11.650  0.2389E+00  0.4389E-02  0.5801E-02  0.3922E-02  0.1597E-03  0.1098E-03  0.7884E-04  0.1902E-03  0.5551E-04
    -11.578  0.2027E+00  0.4242E-02  0.5025E-02  0.4241E-02  0.2062E-03  0.1387E-03  0.9394E-04  0.1872E-03  0.5643E-04
    -11.505  0.1947E+00  0.5160E-02  0.4709E-02  0.4638E-02  0.2577E-03  0.1946E-03  0.1137E-03  0.2268E-03  0.6625E-04
    -11.433  0.1941E+00  0.6244E-02  0.4514E-02  0.4898E-02  0.2988E-03  0.2490E-03  0.1297E-03  0.2726E-03  0.7679E-04
    -11.360  0.1828E+00  0.6446E-02  0.4340E-02  0.5351E-02  0.3448E-03  0.2784E-03  0.1450E-03  0.2857E-03  0.8212E-04
    -11.288  0.1682E+00  0.5719E-02  0.4481E-02  0.6413E-02  0.4160E-03  0.2854E-03  0.1677E-03  0.2662E-03  0.8407E-04
    -11.215  0.1549E+00  0.4708E-02  0.4686E-02  0.7385E-02  0.4741E-03  0.2769E-03  0.1856E-03  0.2344E-03  0.8267E-04
    -11.143  0.1340E+00  0.3850E-02  0.4409E-02  0.7441E-02  0.4803E-03  0.2574E-03  0.1848E-03  0.2042E-03  0.7664E-04
    -11.070  0.1090E+00  0.3189E-02  0.4058E-02  0.7665E-02  0.5068E-03  0.2530E-03  0.1920E-03  0.1885E-03  0.7505E-04
    -10.998  0.9579E-01  0.2724E-02  0.4561E-02  0.9844E-02  0.6617E-03  0.2957E-03  0.2466E-03  0.1998E-03  0.9038E-04
    -10.925  0.9285E-01  0.2460E-02  0.5726E-02  0.1342E-01  0.9070E-03  0.3722E-03  0.3336E-03  0.2293E-03  0.1177E-03
    -10.853  0.7998E-01  0.2233E-02  0.6364E-02  0.1588E-01  0.1084E-02  0.4276E-03  0.3939E-03  0.2475E-03  0.1370E-03
    -10.780  0.5076E-01  0.1869E-02  0.5901E-02  0.1578E-01  0.1096E-02  0.4270E-03  0.3929E-03  0.2362E-03  0.1363E-03
    -10.708  0.2296E-01  0.1460E-02  0.4792E-02  0.1351E-01  0.9574E-03  0.3788E-03  0.3375E-03  0.2017E-03  0.1180E-03
    -10.635  0.1534E-01  0.1160E-02  0.3637E-02  0.9934E-02  0.7172E-03  0.3019E-03  0.2468E-03  0.1566E-03  0.8871E-04
    -10.563  0.2745E-01  0.8525E-03  0.2699E-02  0.6038E-02  0.4383E-03  0.2074E-03  0.1455E-03  0.1068E-03  0.5577E-04
    -10.490  0.4355E-01  0.3736E-03  0.2017E-02  0.2957E-02  0.2051E-03  0.1130E-03  0.6392E-04  0.5838E-04  0.2799E-04
    -10.418  0.5178E-01  0.1171E-03  0.1657E-02  0.1394E-02  0.8436E-04  0.6411E-04  0.2307E-04  0.3222E-04  0.1392E-04
    -10.345  0.5601E-01  0.1308E-02  0.1891E-02  0.1294E-02  0.9830E-04  0.1435E-03  0.2599E-04  0.6945E-04  0.2054E-04
    -10.273  0.6480E-01  0.5125E-02  0.2928E-02  0.2152E-02  0.2320E-03  0.4177E-03  0.6394E-04  0.2049E-03  0.5028E-04
    -10.200  0.7392E-01  0.1066E-01  0.4307E-02  0.3255E-02  0.4186E-03  0.8071E-03  0.1160E-03  0.4011E-03  0.9148E-04
    -10.128  0.7043E-01  0.1430E-01  0.4927E-02  0.3773E-02  0.5315E-03  0.1052E-02  0.1471E-03  0.5279E-03  0.1162E-03
    -10.056  0.5097E-01  0.1294E-01  0.4086E-02  0.3205E-02  0.4729E-03  0.9385E-03  0.1309E-03  0.4762E-03  0.1028E-03
     -9.983  0.2647E-01  0.7701E-02  0.2302E-02  0.1890E-02  0.2832E-03  0.5534E-03  0.7888E-04  0.2855E-03  0.6069E-04
     -9.911  0.9550E-02  0.2533E-02  0.7348E-03  0.6834E-03  0.9822E-04  0.1799E-03  0.2808E-04  0.9740E-04  0.2003E-04
     -9.838  0.3504E-02 -0.1012E-03  0.1308E-05  0.8683E-04  0.3546E-05 -0.8352E-05  0.1873E-05  0.6300E-06 -0.5439E-06
     -9.766  0.3787E-02 -0.6094E-03 -0.1030E-03 -0.2487E-04 -0.1516E-04 -0.4277E-04 -0.3655E-05 -0.1914E-04 -0.4372E-05
     -9.693  0.5025E-02 -0.3639E-03 -0.1526E-04  0.1950E-04 -0.7250E-05 -0.2358E-04 -0.1907E-05 -0.1148E-04 -0.2303E-05
     -9.621  0.4721E-02 -0.1292E-03  0.3817E-04  0.4341E-04 -0.4632E-06 -0.6421E-05 -0.3161E-06 -0.3974E-05 -0.4565E-06
     -9.548  0.2856E-02 -0.3246E-04  0.3467E-04  0.2942E-04  0.1027E-05 -0.2343E-06  0.4139E-07 -0.1060E-05  0.1486E-06
     -9.476 -0.7519E-04 -0.1128E-04  0.1003E-04  0.6769E-05  0.3416E-06  0.4094E-06 -0.6958E-07 -0.3658E-06  0.1282E-06
     -9.403 -0.5123E-02 -0.2328E-04 -0.1734E-04 -0.9926E-05 -0.4436E-06 -0.3708E-06 -0.2343E-06 -0.2822E-06 -0.2574E-07
     -9.331 -0.1460E-01 -0.5902E-04 -0.5213E-04 -0.2691E-04 -0.1272E-05 -0.1408E-05 -0.5427E-06 -0.4235E-06 -0.1962E-06
     -9.258 -0.2482E-01 -0.9204E-04 -0.8680E-04 -0.5245E-04 -0.2928E-05 -0.2443E-05 -0.1192E-05 -0.7216E-06 -0.4529E-06
     -9.186 -0.1217E-01 -0.1718E-04 -0.4640E-04 -0.6397E-04 -0.5031E-05 -0.1826E-05 -0.1789E-05 -0.7341E-06 -0.7041E-06
     -9.113  0.6830E-01  0.3343E-03  0.2216E-03  0.2736E-04 -0.2763E-05  0.4505E-05 -0.2849E-06  0.7722E-06 -0.2164E-06
     -9.041  0.2466E+00  0.1023E-02  0.8279E-03  0.3550E-03  0.1395E-04  0.2050E-04  0.6980E-05  0.5340E-05  0.2423E-05
     -8.968  0.4794E+00  0.1811E-02  0.1637E-02  0.9367E-03  0.4999E-04  0.4381E-04  0.2123E-04  0.1278E-04  0.7769E-05
     -8.896  0.6405E+00  0.2246E-02  0.2218E-02  0.1496E-02  0.8919E-04  0.6233E-04  0.3588E-04  0.1938E-04  0.1339E-04
     -8.823  0.6216E+00  0.2024E-02  0.2175E-02  0.1660E-02  0.1058E-03  0.6356E-04  0.4127E-04  0.2073E-04  0.1558E-04
     -8.751  0.4695E+00  0.1291E-02  0.1650E-02  0.1512E-02  0.1061E-03  0.5199E-04  0.3998E-04  0.1847E-04  0.1529E-04
     -8.678  0.3598E+00  0.5296E-03  0.1247E-02  0.1612E-02  0.1307E-03  0.4764E-04  0.4716E-04  0.1986E-04  0.1832E-04
     -8.606  0.3776E+00  0.1329E-03  0.1282E-02  0.2128E-02  0.1865E-03  0.5920E-04  0.6588E-04  0.2718E-04  0.2571E-04
     -8.534  0.4176E+00  0.1963E-03  0.1394E-02  0.2444E-02  0.2206E-03  0.7412E-04  0.7724E-04  0.3419E-04  0.2989E-04
     -8.461  0.3817E+00  0.6601E-03  0.1195E-02  0.2136E-02  0.2046E-03  0.8634E-04  0.7087E-04  0.3872E-04  0.2638E-04
     -8.389  0.3444E+00  0.1361E-02  0.8838E-03  0.1749E-02  0.1921E-03  0.1101E-03  0.6612E-04  0.4852E-04  0.2255E-04
     -8.316  0.4052E+00  0.1993E-02  0.8416E-03  0.1943E-02  0.2336E-03  0.1504E-03  0.8198E-04  0.6698E-04  0.2641E-04
     -8.244  0.5106E+00  0.2376E-02  0.1013E-02  0.2463E-02  0.2921E-03  0.1875E-03  0.1057E-03  0.8461E-04  0.3401E-04
     -8.171  0.5620E+00  0.2715E-02  0.1082E-02  0.2646E-02  0.3082E-03  0.2091E-03  0.1148E-03  0.9264E-04  0.3667E-04
     -8.099  0.5888E+00  0.3340E-02  0.9832E-03  0.2433E-02  0.2927E-03  0.2308E-03  0.1098E-03  0.9384E-04  0.3407E-04
     -8.026  0.6857E+00  0.4398E-02  0.8929E-03  0.2218E-02  0.2932E-03  0.2736E-03  0.1052E-03  0.9465E-04  0.3153E-04
     -7.954  0.8548E+00  0.5784E-02  0.9040E-03  0.2128E-02  0.3125E-03  0.3339E-03  0.1025E-03  0.9602E-04  0.3028E-04
     -7.881  0.9846E+00  0.6846E-02  0.9351E-03  0.1949E-02  0.3086E-03  0.3719E-03  0.9260E-04  0.9273E-04  0.2733E-04
     -7.809  0.9474E+00  0.6492E-02  0.8741E-03  0.1538E-02  0.2511E-03  0.3362E-03  0.7087E-04  0.7798E-04  0.2109E-04
     -7.736  0.7177E+00  0.4501E-02  0.7065E-03  0.1010E-02  0.1581E-03  0.2265E-03  0.4360E-04  0.5339E-04  0.1340E-04
     -7.664  0.4096E+00  0.2192E-02  0.5354E-03  0.6299E-03  0.8348E-04  0.1144E-03  0.2316E-04  0.3249E-04  0.7833E-05
     -7.591  0.1743E+00  0.1026E-02  0.4787E-03  0.5611E-03  0.6492E-04  0.6903E-04  0.1756E-04  0.2788E-04  0.6754E-05
     -7.519  0.6944E-01  0.1085E-02  0.5227E-03  0.6868E-03  0.8582E-04  0.8428E-04  0.2366E-04  0.3706E-04  0.9082E-05
     -7.446  0.4853E-01  0.1410E-02  0.5244E-03  0.7331E-03  0.9863E-04  0.1016E-03  0.3109E-04  0.4575E-04  0.1138E-04
     -7.374  0.4706E-01  0.1321E-02  0.4070E-03  0.5795E-03  0.8039E-04  0.8630E-04  0.3217E-04  0.4384E-04  0.1139E-04
     -7.301  0.4317E-01  0.9532E-03  0.2882E-03  0.3800E-03  0.5266E-04  0.5758E-04  0.2723E-04  0.3468E-04  0.9874E-05
     -7.229  0.4496E-01  0.7398E-03  0.3278E-03  0.3400E-03  0.4638E-04  0.4933E-04  0.2121E-04  0.2788E-04  0.8833E-05
     -7.156  0.5364E-01  0.7801E-03  0.4937E-03  0.4505E-03  0.6168E-04  0.6376E-04  0.1715E-04  0.2665E-04  0.8680E-05
     -7.084  0.5670E-01  0.8291E-03  0.5964E-03  0.5255E-03  0.7255E-04  0.7475E-04  0.1407E-04  0.2597E-04  0.8165E-05
     -7.012  0.4914E-01  0.7055E-03  0.5714E-03  0.4718E-03  0.6436E-04  0.6691E-04  0.1056E-04  0.2218E-04  0.7009E-05
     -6.939  0.4319E-01  0.5056E-03  0.5887E-03  0.4008E-03  0.5007E-04  0.5329E-04  0.7696E-05  0.1892E-04  0.7119E-05
     -6.867  0.5106E-01  0.4060E-03  0.8256E-03  0.4443E-03  0.4613E-04  0.5179E-04  0.6956E-05  0.2142E-04  0.1036E-04
     -6.794  0.6991E-01  0.4242E-03  0.1267E-02  0.5883E-03  0.5021E-04  0.6171E-04  0.7454E-05  0.2951E-04  0.1649E-04
     -6.722  0.8803E-01  0.4584E-03  0.1747E-02  0.7294E-03  0.5055E-04  0.7071E-04  0.7262E-05  0.3858E-04  0.2339E-04
     -6.649  0.9423E-01  0.4369E-03  0.2022E-02  0.7762E-03  0.4277E-04  0.7016E-04  0.5840E-05  0.4322E-04  0.2756E-04
     -6.577  0.8187E-01  0.3565E-03  0.1885E-02  0.6821E-03  0.3025E-04  0.5851E-04  0.3937E-05  0.3972E-04  0.2569E-04
     -6.504  0.5471E-01  0.2453E-03  0.1362E-02  0.4741E-03  0.1759E-04  0.3961E-04  0.2282E-05  0.2892E-04  0.1815E-04
     -6.432  0.2607E-01  0.1363E-03  0.7289E-03  0.2463E-03  0.7845E-05  0.2059E-04  0.1110E-05  0.1597E-04  0.9193E-05
     -6.359  0.7065E-02  0.5396E-04  0.2543E-03  0.8261E-04  0.2091E-05  0.7103E-05  0.3857E-06  0.5962E-05  0.2827E-05
     -6.287 -0.9011E-03  0.7682E-05  0.1730E-04  0.3262E-05 -0.3248E-06  0.4005E-06  0.1926E-07  0.6646E-06 -0.6202E-07
     -6.214 -0.2313E-02 -0.8359E-05 -0.4898E-04 -0.1783E-04 -0.7991E-06 -0.1492E-05 -0.9387E-07 -0.9874E-06 -0.7091E-06
     -6.142 -0.1527E-02 -0.8260E-05 -0.4071E-04 -0.1422E-04 -0.5486E-06 -0.1232E-05 -0.7955E-07 -0.8992E-06 -0.5140E-06
     -6.069 -0.6617E-03 -0.4211E-05 -0.1955E-04 -0.6733E-05 -0.2442E-06 -0.5909E-06 -0.3875E-07 -0.4462E-06 -0.2330E-06
     -5.997 -0.2100E-03 -0.1454E-05 -0.6579E-05 -0.2248E-05 -0.7834E-07 -0.1982E-06 -0.1304E-07 -0.1526E-06 -0.7605E-07
     -5.924 -0.5016E-04 -0.3633E-06 -0.1628E-05 -0.5534E-06 -0.1868E-07 -0.4879E-07 -0.3191E-08 -0.3806E-07 -0.1851E-07
     -5.852 -0.9087E-05 -0.6737E-07 -0.3016E-06 -0.1021E-06 -0.3353E-08 -0.8982E-08 -0.5814E-09 -0.7078E-08 -0.3398E-08
     -5.779 -0.1253E-05 -0.9393E-08 -0.4217E-07 -0.1423E-07 -0.4564E-09 -0.1248E-08 -0.7981E-10 -0.9914E-09 -0.4730E-09
     -5.707 -0.1316E-06 -0.9920E-09 -0.4474E-08 -0.1506E-08 -0.4732E-10 -0.1316E-09 -0.8312E-11 -0.1052E-09 -0.5007E-10
     -5.634 -0.1056E-07 -0.7968E-10 -0.3612E-09 -0.1214E-09 -0.3746E-11 -0.1057E-10 -0.6597E-12 -0.8493E-11 -0.4038E-11
     -5.562 -0.6471E-09 -0.4882E-11 -0.2223E-10 -0.7459E-11 -0.2268E-12 -0.6474E-12 -0.4001E-13 -0.5226E-12 -0.2485E-12
     -5.490 -0.3033E-10 -0.2286E-12 -0.1045E-11 -0.3503E-12 -0.1052E-13 -0.3032E-13 -0.1857E-14 -0.2456E-13 -0.1168E-13
     -5.417 -0.1088E-11 -0.8187E-14 -0.3759E-13 -0.1258E-13 -0.3741E-15 -0.1086E-14 -0.6604E-16 -0.8827E-15 -0.4201E-15
     -5.345 -0.2987E-13 -0.2267E-15 -0.1041E-14 -0.3651E-15 -0.1031E-16 -0.2987E-16 -0.1943E-17 -0.2435E-16 -0.1164E-16
     -5.272 -0.6704E-15 -0.1148E-15 -0.3610E-15 -0.9884E-15 -0.5976E-17 -0.4013E-17 -0.7322E-17 -0.4195E-17 -0.4411E-17
     -5.200 -0.1631E-14 -0.4282E-14 -0.1318E-13 -0.3812E-13 -0.2243E-15 -0.1317E-15 -0.2831E-15 -0.1434E-15 -0.1623E-15
     -5.127 -0.4828E-13 -0.1272E-12 -0.3911E-12 -0.1131E-11 -0.6669E-14 -0.3915E-14 -0.8405E-14 -0.4263E-14 -0.4832E-14
     -5.055 -0.1099E-11 -0.2885E-11 -0.8853E-11 -0.2560E-10 -0.1514E-12 -0.8883E-13 -0.1904E-12 -0.9678E-13 -0.1099E-12
     -4.982 -0.1908E-10 -0.4983E-10 -0.1526E-09 -0.4414E-09 -0.2621E-11 -0.1536E-11 -0.3284E-11 -0.1675E-11 -0.1906E-11
     -4.910 -0.2524E-09 -0.6545E-09 -0.1999E-08 -0.5781E-08 -0.3451E-10 -0.2020E-10 -0.4306E-10 -0.2206E-10 -0.2516E-10
     -4.837 -0.2539E-08 -0.6515E-08 -0.1983E-07 -0.5734E-07 -0.3447E-09 -0.2015E-09 -0.4277E-09 -0.2205E-09 -0.2524E-09
     -4.765 -0.1935E-07 -0.4892E-07 -0.1482E-06 -0.4286E-06 -0.2600E-08 -0.1516E-08 -0.3203E-08 -0.1665E-08 -0.1914E-08
     -4.692 -0.1111E-06 -0.2749E-06 -0.8278E-06 -0.2394E-05 -0.1469E-07 -0.8545E-08 -0.1794E-07 -0.9423E-08 -0.1089E-07
     -4.620 -0.4753E-06 -0.1141E-05 -0.3401E-05 -0.9831E-05 -0.6124E-07 -0.3552E-07 -0.7392E-07 -0.3942E-07 -0.4586E-07
     -4.547 -0.1490E-05 -0.3415E-05 -0.9947E-05 -0.2870E-04 -0.1821E-06 -0.1057E-06 -0.2169E-06 -0.1182E-06 -0.1383E-06
     -4.475 -0.3353E-05 -0.7129E-05 -0.1908E-04 -0.5446E-04 -0.3536E-06 -0.2097E-06 -0.4154E-06 -0.2361E-06 -0.2747E-06
     -4.402 -0.5634E-05 -0.1084E-04 -0.1769E-04 -0.4524E-04 -0.3023E-06 -0.2244E-06 -0.3627E-06 -0.2475E-06 -0.2508E-06
     -4.330 -0.1119E-04 -0.2431E-04  0.9247E-05  0.6640E-04  0.4755E-06 -0.3383E-07  0.4068E-06  0.6443E-09  0.3386E-06
     -4.257 -0.4459E-04 -0.1282E-03  0.1451E-05  0.2178E-03  0.1760E-05 -0.4069E-06  0.1180E-05 -0.4468E-06  0.1447E-05
     -4.185 -0.1835E-03 -0.6040E-03 -0.3268E-03 -0.4538E-04  0.6418E-06 -0.4765E-05 -0.2388E-05 -0.6180E-05  0.1315E-05
     -4.112 -0.5313E-03 -0.1972E-02 -0.1476E-02 -0.1447E-02 -0.9093E-05 -0.1952E-04 -0.1784E-04 -0.2619E-04 -0.3461E-05
     -4.040 -0.9281E-03 -0.4231E-02 -0.3316E-02 -0.3613E-02 -0.3083E-04 -0.4561E-04 -0.4365E-04 -0.6114E-04 -0.1346E-04
     -3.968 -0.3202E-03 -0.4443E-02 -0.2915E-02 -0.2389E-02 -0.4689E-04 -0.5331E-04 -0.4020E-04 -0.6463E-04 -0.1678E-04
     -3.895  0.3365E-02  0.5395E-02  0.6872E-02  0.1123E-01  0.4153E-05  0.4232E-04  0.9004E-04  0.8951E-04  0.2001E-04
     -3.823  0.1127E-01  0.3401E-01  0.3281E-01  0.4541E-01  0.2196E-03  0.3479E-03  0.4512E-03  0.5353E-03  0.1448E-03
     -3.750  0.2072E-01  0.7923E-01  0.7101E-01  0.9617E-01  0.6585E-03  0.8821E-03  0.1024E-02  0.1223E-02  0.3811E-03
     -3.678  0.2634E-01  0.1239E+00  0.1041E+00  0.1436E+00  0.1243E-02  0.1510E-02  0.1594E-02  0.1839E-02  0.6732E-03
     -3.605  0.2602E-01  0.1512E+00  0.1153E+00  0.1662E+00  0.1774E-02  0.2053E-02  0.1889E-02  0.2056E-02  0.8931E-03
     -3.533  0.2340E-01  0.1615E+00  0.1052E+00  0.1622E+00  0.2149E-02  0.2468E-02  0.1816E-02  0.1866E-02  0.9593E-03
     -3.460  0.2269E-01  0.1675E+00  0.8926E-01  0.1527E+00  0.2519E-02  0.2861E-02  0.1550E-02  0.1589E-02  0.9394E-03
     -3.388  0.2415E-01  0.1760E+00  0.8149E-01  0.1564E+00  0.3045E-02  0.3266E-02  0.1339E-02  0.1524E-02  0.9434E-03
     -3.315  0.2551E-01  0.1807E+00  0.8151E-01  0.1666E+00  0.3500E-02  0.3497E-02  0.1238E-02  0.1641E-02  0.9479E-03
     -3.243  0.2467E-01  0.1693E+00  0.8012E-01  0.1642E+00  0.3438E-02  0.3289E-02  0.1117E-02  0.1663E-02  0.8693E-03
     -3.170  0.2053E-01  0.1366E+00  0.7275E-01  0.1468E+00  0.2809E-02  0.2626E-02  0.9181E-03  0.1442E-02  0.7571E-03
     -3.098  0.1407E-01  0.9241E-01  0.6257E-01  0.1262E+00  0.2073E-02  0.1825E-02  0.7484E-03  0.1110E-02  0.7313E-03
     -3.025  0.8229E-02  0.5428E-01  0.5367E-01  0.1092E+00  0.1678E-02  0.1246E-02  0.7178E-03  0.8640E-03  0.7832E-03
     -2.953  0.5568E-02  0.3324E-01  0.4924E-01  0.9839E-01  0.1709E-02  0.1016E-02  0.8342E-03  0.7739E-03  0.8149E-03
     -2.880  0.6728E-02  0.2945E-01  0.5416E-01  0.1012E+00  0.2056E-02  0.1062E-02  0.1075E-02  0.8288E-03  0.8207E-03
     -2.808  0.1141E-01  0.3704E-01  0.7154E-01  0.1231E+00  0.2625E-02  0.1285E-02  0.1426E-02  0.1003E-02  0.8854E-03
     -2.735  0.1940E-01  0.4806E-01  0.9616E-01  0.1573E+00  0.3278E-02  0.1578E-02  0.1815E-02  0.1214E-02  0.1031E-02