   30   30   20    1
  0.6786351E+02  0.4330646E-09  0.3133730E-08  0.1732258E-08  0.5000000E-15
  1.000000000000000E-004
  CAR 
 Tetradymite Slab                        
    168     28    128
 
  0.0000000E+00  0.0000000E+00  0.0000000E+00  0.1388889E-01
    1      -12.041723   1.000000
    2      -11.940770   1.000000
    3      -11.872666   1.000000
    4      -11.699622   1.000000
    5      -11.526592   1.000000
    6      -11.450125   1.000000
    7      -11.417432   1.000000
    8      -11.114590   1.000000
    9      -11.025837   1.000000
   10      -10.958820   1.000000
   11      -10.575790   1.000000
   12      -10.521788   1.000000
   13      -10.354609   1.000000
   14      -10.285624   1.000000
   15      -10.178907   1.000000
   16      -10.105260   1.000000
   17      -10.042087   1.000000
   18      -10.011896   1.000000
   19       -8.214163   1.000000
   20       -7.862858   1.000000
   21       -7.850239   1.000000
   22       -7.826130   1.000000
   23       -7.790427   1.000000
   24       -7.711772   1.000000
   25       -7.497809   1.000000
   26       -7.406332   1.000000
   27       -7.257156   1.000000
   28       -7.045995   1.000000
   29       -6.612418   1.000000
   30       -6.464616   1.000000
   31       -3.908730   1.000000
   32       -3.739304   1.000000
   33       -3.459149   1.000000
   34       -3.173747   1.000000
   35       -3.068912   1.000000
   36       -3.013978   1.000000
   37       -2.772788   1.000000
   38       -2.653090   1.000000
   39       -2.569696   1.000000
   40       -2.547404   1.000000
   41       -2.496531   1.000000
   42       -2.359855   1.000000
   43       -2.326637   1.000000
   44       -2.210563   1.000000
   45       -2.108936   1.000000
   46       -2.057127   1.000000
   47       -2.042408   1.000000
   48       -2.021843   1.000000
   49       -1.953279   1.000000
   50       -1.930774   1.000000
   51       -1.871825   1.000000
   52       -1.748414   1.000000
   53       -1.734635   1.000000
   54       -1.719753   1.000000
   55       -1.685088   1.000000
   56       -1.679207   1.000000
   57       -1.594829   1.000000
   58       -1.525899   1.000000
   59       -1.452399   1.000000
   60       -1.414071   1.000000
   61       -1.302435   1.000000
   62       -1.269185   1.000000
   63       -1.237539   1.000000
   64       -1.215651   1.000000
   65       -1.057212   1.000000
   66       -1.004822   1.000000
   67       -0.883487   1.000000
   68       -0.638219   1.000000
   69       -0.516558   1.000000
   70       -0.414673   1.000000
   71       -0.346494   1.000000
   72       -0.257399   1.000001
   73       -0.217959   1.000005
   74       -0.154305   1.000039
   75       -0.142259   1.000055
   76       -0.098101   1.000188
   77       -0.074409   1.000348
   78        0.006249   1.002210
   79        0.015832   1.002684
   80        0.126993   1.016604
   81        0.141194   1.019664
   82        0.377998   0.864920
   83        0.383603   0.848885
   84        0.391143   0.826125
   85        0.625601   0.024669
   86        0.767864  -0.029449
   87        0.841902  -0.013346
   88        1.036992  -0.000267
   89        1.059660  -0.000147
   90        1.184042  -0.000003
   91        1.475857  -0.000000
   92        1.508314  -0.000000
   93        1.574705  -0.000000
   94        1.606864  -0.000000
   95        1.745557  -0.000000
   96        1.883997  -0.000000
   97        1.974072  -0.000000
   98        2.098990  -0.000000
   99        2.170002  -0.000000
  100        2.224638  -0.000000
  101        2.247365  -0.000000
  102        2.274032  -0.000000
  103        2.289785  -0.000000
  104        2.351739  -0.000000
  105        2.469001  -0.000000
  106        2.516513  -0.000000
  107        2.593916  -0.000000
  108        2.603487  -0.000000
  109        2.620768  -0.000000
  110        2.734704  -0.000000
  111        2.851368  -0.000000
  112        2.993176  -0.000000
  113        2.996831  -0.000000
  114        3.034459  -0.000000
  115        3.223118  -0.000000
  116        3.498644  -0.000000
  117        3.505999  -0.000000
  118        3.659822  -0.000000
  119        3.939040  -0.000000
  120        4.180203  -0.000000
  121        4.295504  -0.000000
  122        4.322185  -0.000000
  123        4.460318  -0.000000
  124        4.562328  -0.000000
  125        4.628837  -0.000000
  126        4.675655  -0.000000
  127        4.873196  -0.000000
  128        4.970534  -0.000000
 
  0.8333333E-01  0.1157023E-31  0.0000000E+00  0.5555556E-01
    1      -11.998940   1.000000
    2      -11.899476   1.000000
    3      -11.829510   1.000000
    4      -11.662934   1.000000
    5      -11.484965   1.000000
    6      -11.408632   1.000000
    7      -11.378781   1.000000
    8      -11.074703   1.000000
    9      -10.984893   1.000000
   10      -10.925404   1.000000
   11      -10.537968   1.000000
   12      -10.482849   1.000000
   13      -10.346570   1.000000
   14      -10.271960   1.000000
   15      -10.165738   1.000000
   16      -10.099337   1.000000
   17      -10.019946   1.000000
   18       -9.997703   1.000000
   19       -8.214535   1.000000
   20       -7.905474   1.000000
   21       -7.885459   1.000000
   22       -7.870120   1.000000
   23       -7.830377   1.000000
   24       -7.755248   1.000000
   25       -7.506651   1.000000
   26       -7.430991   1.000000
   27       -7.284622   1.000000
   28       -7.098034   1.000000
   29       -6.669990   1.000000
   30       -6.529776   1.000000
   31       -3.874514   1.000000
   32       -3.706876   1.000000
   33       -3.430291   1.000000
   34       -3.192559   1.000000
   35       -3.091258   1.000000
   36       -3.043300   1.000000
   37       -2.922624   1.000000
   38       -2.902158   1.000000
   39       -2.758296   1.000000
   40       -2.704228   1.000000
   41       -2.597530   1.000000
   42       -2.512322   1.000000
   43       -2.411240   1.000000
   44       -2.348951   1.000000
   45       -2.314909   1.000000
   46       -2.263077   1.000000
   47       -2.215882   1.000000
   48       -2.162311   1.000000
   49       -2.025344   1.000000
   50       -1.961002   1.000000
   51       -1.917573   1.000000
   52       -1.870688   1.000000
   53       -1.773872   1.000000
   54       -1.745089   1.000000
   55       -1.710140   1.000000
   56       -1.684631   1.000000
   57       -1.591360   1.000000
   58       -1.583910   1.000000
   59       -1.537293   1.000000
   60       -1.473501   1.000000
   61       -1.396884   1.000000
   62       -1.352022   1.000000
   63       -1.214398   1.000000
   64       -1.160720   1.000000
   65       -1.058645   1.000000
   66       -1.025247   1.000000
   67       -0.871929   1.000000
   68       -0.640788   1.000000
   69       -0.549742   1.000000
   70       -0.403917   1.000000
   71       -0.363376   1.000000
   72       -0.304114   1.000000
   73       -0.278919   1.000001
   74       -0.267090   1.000001
   75       -0.217854   1.000005
   76       -0.090037   1.000233
   77       -0.052468   1.000597
   78       -0.022394   1.001197
   79        0.134834   1.018266
   80        0.168443   1.025911
   81        0.233885   1.035429
   82        0.346852   0.939743
   83        0.439502   0.652133
   84        0.501035   0.395512
   85        0.894742  -0.005851
   86        0.922987  -0.003491
   87        0.955092  -0.001829
   88        1.077468  -0.000090
   89        1.168221  -0.000006
   90        1.241988  -0.000000
   91        1.563854  -0.000000
   92        1.572175  -0.000000
   93        1.773984  -0.000000
   94        1.859373  -0.000000
   95        1.896411  -0.000000
   96        1.940101  -0.000000
   97        2.043558  -0.000000
   98        2.107319  -0.000000
   99        2.124529  -0.000000
  100        2.180533  -0.000000
  101        2.206530  -0.000000
  102        2.261250  -0.000000
  103        2.312219  -0.000000
  104        2.352033  -0.000000
  105        2.372759  -0.000000
  106        2.424280  -0.000000
  107        2.511342  -0.000000
  108        2.517193  -0.000000
  109        2.681497  -0.000000
  110        2.795953  -0.000000
  111        2.882544  -0.000000
  112        3.041672  -0.000000
  113        3.217022  -0.000000
  114        3.273537  -0.000000
  115        3.353006  -0.000000
  116        3.446284  -0.000000
  117        3.488416  -0.000000
  118        3.558043  -0.000000
  119        3.932607  -0.000000
  120        4.187482  -0.000000
  121        4.336795  -0.000000
  122        4.465780  -0.000000
  123        4.547000  -0.000000
  124        4.702739  -0.000000
  125        4.748404  -0.000000
  126        4.776226  -0.000000
  127        4.912893  -0.000000
  128        5.058254  -0.000000
 
  0.1666667E+00  0.1946107E-31  0.0000000E+00  0.5555556E-01
    1      -11.872746   1.000000
    2      -11.777898   1.000000
    3      -11.702236   1.000000
    4      -11.556188   1.000000
    5      -11.362699   1.000000
    6      -11.286984   1.000000
    7      -11.265315   1.000000
    8      -10.958417   1.000000
    9      -10.865438   1.000000
   10      -10.829997   1.000000
   11      -10.436470   1.000000
   12      -10.379218   1.000000
   13      -10.315041   1.000000
   14      -10.235413   1.000000
   15      -10.134275   1.000000
   16      -10.092430   1.000000
   17       -9.964648   1.000000
   18       -9.947072   1.000000
   19       -8.225417   1.000000
   20       -8.040204   1.000000
   21       -8.015076   1.000000
   22       -7.989247   1.000000
   23       -7.946666   1.000000
   24       -7.884020   1.000000
   25       -7.546597   1.000000
   26       -7.505826   1.000000
   27       -7.374202   1.000000
   28       -7.248570   1.000000
   29       -6.844834   1.000000
   30       -6.726238   1.000000
   31       -3.778311   1.000000
   32       -3.614289   1.000000
   33       -3.440059   1.000000
   34       -3.414379   1.000000
   35       -3.359313   1.000000
   36       -3.306350   1.000000
   37       -3.193544   1.000000
   38       -3.134103   1.000000
   39       -3.046370   1.000000
   40       -2.930240   1.000000
   41       -2.846221   1.000000
   42       -2.800165   1.000000
   43       -2.734978   1.000000
   44       -2.720864   1.000000
   45       -2.594946   1.000000
   46       -2.504020   1.000000
   47       -2.373399   1.000000
   48       -2.356037   1.000000
   49       -2.224880   1.000000
   50       -2.197748   1.000000
   51       -2.012378   1.000000
   52       -1.971449   1.000000
   53       -1.929372   1.000000
   54       -1.871876   1.000000
   55       -1.809402   1.000000
   56       -1.785477   1.000000
   57       -1.666634   1.000000
   58       -1.570414   1.000000
   59       -1.554352   1.000000
   60       -1.539532   1.000000
   61       -1.491744   1.000000
   62       -1.464303   1.000000
   63       -1.335545   1.000000
   64       -1.301580   1.000000
   65       -1.228528   1.000000
   66       -1.151572   1.000000
   67       -1.102353   1.000000
   68       -0.766240   1.000000
   69       -0.743985   1.000000
   70       -0.532722   1.000000
   71       -0.467616   1.000000
   72       -0.372311   1.000000
   73       -0.296782   1.000000
   74       -0.261060   1.000001
   75       -0.165362   1.000028
   76       -0.145754   1.000050
   77       -0.069695   1.000392
   78        0.016562   1.002723
   79        0.102511   1.011955
   80        0.150413   1.021750
   81        0.267363   1.029098
   82        0.287437   1.018220
   83        0.480568   0.481218
   84        0.553825   0.197128
   85        0.956873  -0.001761
   86        1.013429  -0.000484
   87        1.149221  -0.000010
   88        1.248752  -0.000000
   89        1.514742  -0.000000
   90        1.554335  -0.000000
   91        1.585123  -0.000000
   92        1.825952  -0.000000
   93        1.920153  -0.000000
   94        1.943760  -0.000000
   95        2.012352  -0.000000
   96        2.051821  -0.000000
   97        2.161571  -0.000000
   98        2.182016  -0.000000
   99        2.275514  -0.000000
  100        2.278011  -0.000000
  101        2.318544  -0.000000
  102        2.385163  -0.000000
  103        2.428881  -0.000000
  104        2.482042  -0.000000
  105        2.524231  -0.000000
  106        2.603223  -0.000000
  107        2.656308  -0.000000
  108        2.826778  -0.000000
  109        2.889782  -0.000000
  110        2.935919  -0.000000
  111        3.021450  -0.000000
  112        3.090564  -0.000000
  113        3.214211  -0.000000
  114        3.260798  -0.000000
  115        3.349082  -0.000000
  116        3.566888  -0.000000
  117        3.710757  -0.000000
  118        3.817875  -0.000000
  119        3.889438  -0.000000
  120        4.127896  -0.000000
  121        4.552253  -0.000000
  122        4.708931  -0.000000
  123        4.787240  -0.000000
  124        4.884838  -0.000000
  125        4.982248  -0.000000
  126        5.088264  -0.000000
  127        5.180771  -0.000000
  128        5.245120  -0.000000
 
  0.2500000E+00  0.4837854E-31  0.0000000E+00  0.2777778E-01
    1      -11.670434   1.000000
    2      -11.583745   1.000000
    3      -11.498500   1.000000
    4      -11.389931   1.000000
    5      -11.169061   1.000000
    6      -11.095401   1.000000
    7      -11.085482   1.000000
    8      -10.777369   1.000000
    9      -10.691073   1.000000
   10      -10.677947   1.000000
   11      -10.367399   1.000000
   12      -10.275074   1.000000
   13      -10.207714   1.000000
   14      -10.162673   1.000000
   15      -10.100725   1.000000
   16      -10.094145   1.000000
   17       -9.898000   1.000000
   18       -9.855937   1.000000
   19       -8.279376   1.000000
   20       -8.271502   1.000000
   21       -8.254147   1.000000
   22       -8.161281   1.000000
   23       -8.120709   1.000000
   24       -8.077983   1.000000
   25       -7.686502   1.000000
   26       -7.607120   1.000000
   27       -7.521932   1.000000
   28       -7.466895   1.000000
   29       -7.132020   1.000000
   30       -7.044179   1.000000
   31       -3.810536   1.000000
   32       -3.755546   1.000000
   33       -3.621348   1.000000
   34       -3.615156   1.000000
   35       -3.573219   1.000000
   36       -3.487450   1.000000
   37       -3.457814   1.000000
   38       -3.368229   1.000000
   39       -3.237479   1.000000
   40       -3.189646   1.000000
   41       -3.111454   1.000000
   42       -2.989970   1.000000
   43       -2.804045   1.000000
   44       -2.790688   1.000000
   45       -2.739152   1.000000
   46       -2.678949   1.000000
   47       -2.650487   1.000000
   48       -2.543239   1.000000
   49       -2.490868   1.000000
   50       -2.332109   1.000000
   51       -2.229312   1.000000
   52       -2.202469   1.000000
   53       -2.111486   1.000000
   54       -2.082723   1.000000
   55       -1.969274   1.000000
   56       -1.905155   1.000000
   57       -1.851101   1.000000
   58       -1.767149   1.000000
   59       -1.729949   1.000000
   60       -1.678803   1.000000
   61       -1.627063   1.000000
   62       -1.564772   1.000000
   63       -1.388149   1.000000
   64       -1.350577   1.000000
   65       -1.262219   1.000000
   66       -1.181271   1.000000
   67       -1.089980   1.000000
   68       -0.940900   1.000000
   69       -0.867518   1.000000
   70       -0.596240   1.000000
   71       -0.523221   1.000000
   72       -0.503418   1.000000
   73       -0.463579   1.000000
   74       -0.424943   1.000000
   75       -0.274969   1.000001
   76       -0.266076   1.000001
   77       -0.209445   1.000007
   78       -0.071853   1.000371
   79       -0.041577   1.000773
   80        0.043182   1.004531
   81        0.098378   1.011261
   82        0.182857   1.029123
   83        0.349269   0.934811
   84        0.388863   0.833149
   85        0.820974  -0.017504
   86        0.879811  -0.007529
   87        1.075939  -0.000094
   88        1.232150  -0.000001
   89        1.597064  -0.000000
   90        1.693430  -0.000000
   91        1.809861  -0.000000
   92        1.919822  -0.000000
   93        2.035232  -0.000000
   94        2.083269  -0.000000
   95        2.171014  -0.000000
   96        2.220936  -0.000000
   97        2.329408  -0.000000
   98        2.405190  -0.000000
   99        2.457749  -0.000000
  100        2.507263  -0.000000
  101        2.521703  -0.000000
  102        2.537649  -0.000000
  103        2.585024  -0.000000
  104        2.618590  -0.000000
  105        2.759472  -0.000000
  106        2.790290  -0.000000
  107        2.995059  -0.000000
  108        3.023710  -0.000000
  109        3.060787  -0.000000
  110        3.135805  -0.000000
  111        3.218854  -0.000000
  112        3.280457  -0.000000
  113        3.330938  -0.000000
  114        3.545903  -0.000000
  115        3.577718  -0.000000
  116        3.728010  -0.000000
  117        3.761909  -0.000000
  118        3.854010  -0.000000
  119        3.938649  -0.000000
  120        4.083068  -0.000000
  121        4.829004  -0.000000
  122        4.994121  -0.000000
  123        5.053146  -0.000000
  124        5.066053  -0.000000
  125        5.095685  -0.000000
  126        5.176502  -0.000000
  127        5.231441  -0.000000
  128        5.280880  -0.000000
 
  0.3333333E+00  0.4260154E-31  0.0000000E+00  0.5555556E-01
    1      -11.407473   1.000000
    2      -11.332859   1.000000
    3      -11.236790   1.000000
    4      -11.182457   1.000000
    5      -10.926172   1.000000
    6      -10.861250   1.000000
    7      -10.855673   1.000000
    8      -10.557788   1.000000
    9      -10.546075   1.000000
   10      -10.454729   1.000000
   11      -10.377478   1.000000
   12      -10.274460   1.000000
   13      -10.225474   1.000000
   14      -10.141233   1.000000
   15      -10.006587   1.000000
   16       -9.923349   1.000000
   17       -9.818825   1.000000
   18       -9.759478   1.000000
   19       -8.572045   1.000000
   20       -8.568181   1.000000
   21       -8.410036   1.000000
   22       -8.328386   1.000000
   23       -8.307723   1.000000
   24       -8.271706   1.000000
   25       -7.902348   1.000000
   26       -7.813709   1.000000
   27       -7.691709   1.000000
   28       -7.639101   1.000000
   29       -7.498675   1.000000
   30       -7.442523   1.000000
   31       -4.115339   1.000000
   32       -3.879379   1.000000
   33       -3.739529   1.000000
   34       -3.711291   1.000000
   35       -3.697193   1.000000
   36       -3.595068   1.000000
   37       -3.493030   1.000000
   38       -3.447091   1.000000
   39       -3.400168   1.000000
   40       -3.330887   1.000000
   41       -3.245316   1.000000
   42       -3.075718   1.000000
   43       -3.011986   1.000000
   44       -2.885324   1.000000
   45       -2.816651   1.000000
   46       -2.746141   1.000000
   47       -2.699970   1.000000
   48       -2.674621   1.000000
   49       -2.560338   1.000000
   50       -2.529569   1.000000
   51       -2.475560   1.000000
   52       -2.406422   1.000000
   53       -2.308757   1.000000
   54       -2.283773   1.000000
   55       -2.164510   1.000000
   56       -2.113260   1.000000
   57       -2.055817   1.000000
   58       -1.953230   1.000000
   59       -1.927579   1.000000
   60       -1.808771   1.000000
   61       -1.745682   1.000000
   62       -1.625334   1.000000
   63       -1.477846   1.000000
   64       -1.421424   1.000000
   65       -1.202133   1.000000
   66       -1.066705   1.000000
   67       -1.027018   1.000000
   68       -0.996997   1.000000
   69       -0.866037   1.000000
   70       -0.837768   1.000000
   71       -0.686946   1.000000
   72       -0.660426   1.000000
   73       -0.624554   1.000000
   74       -0.581355   1.000000
   75       -0.410472   1.000000
   76       -0.329448   1.000000
   77       -0.260982   1.000001
   78       -0.223167   1.000004
   79       -0.154588   1.000039
   80       -0.069423   1.000394
   81       -0.056372   1.000543
   82       -0.006505   1.001692
   83        0.231715   1.035457
   84        0.242064   1.034967
   85        0.611362   0.048723
   86        0.665156  -0.018457
   87        0.959362  -0.001670
   88        1.329856  -0.000000
   89        1.491693  -0.000000
   90        1.673426  -0.000000
   91        1.890689  -0.000000
   92        1.914683  -0.000000
   93        2.008333  -0.000000
   94        2.117326  -0.000000
   95        2.244634  -0.000000
   96        2.317731  -0.000000
   97        2.363321  -0.000000
   98        2.474502  -0.000000
   99        2.542129  -0.000000
  100        2.573670  -0.000000
  101        2.620775  -0.000000
  102        2.685536  -0.000000
  103        2.722109  -0.000000
  104        2.759051  -0.000000
  105        2.915181  -0.000000
  106        2.940166  -0.000000
  107        3.082519  -0.000000
  108        3.111505  -0.000000
  109        3.169779  -0.000000
  110        3.277805  -0.000000
  111        3.310395  -0.000000
  112        3.417885  -0.000000
  113        3.441024  -0.000000
  114        3.561420  -0.000000
  115        3.577796  -0.000000
  116        3.622244  -0.000000
  117        3.795585  -0.000000
  118        3.978946  -0.000000
  119        4.089732  -0.000000
  120        4.212770  -0.000000
  121        4.845889  -0.000000
  122        4.943336  -0.000000
  123        5.080102  -0.000000
  124        5.124278  -0.000000
  125        5.185188  -0.000000
  126        5.292425  -0.000000
  127        5.360938  -0.000000
  128        5.423578  -0.000000
 
  0.4166667E+00  0.2011417E-30  0.0000000E+00  0.5555556E-01
    1      -11.118552   1.000000
    2      -11.058485   1.000000
    3      -10.994551   1.000000
    4      -10.931618   1.000000
    5      -10.696430   1.000000
    6      -10.631302   1.000000
    7      -10.629762   1.000000
    8      -10.507483   1.000000
    9      -10.392216   1.000000
   10      -10.384596   1.000000
   11      -10.371038   1.000000
   12      -10.341700   1.000000
   13      -10.258300   1.000000
   14      -10.246710   1.000000
   15       -9.872242   1.000000
   16       -9.751827   1.000000
   17       -9.726699   1.000000
   18       -9.683733   1.000000
   19       -8.863876   1.000000
   20       -8.848350   1.000000
   21       -8.577659   1.000000
   22       -8.467998   1.000000
   23       -8.381405   1.000000
   24       -8.358846   1.000000
   25       -8.109952   1.000000
   26       -8.046360   1.000000
   27       -7.874392   1.000000
   28       -7.850057   1.000000
   29       -7.814870   1.000000
   30       -7.744923   1.000000
   31       -4.204502   1.000000
   32       -3.924919   1.000000
   33       -3.857326   1.000000
   34       -3.786095   1.000000
   35       -3.739193   1.000000
   36       -3.720595   1.000000
   37       -3.549879   1.000000
   38       -3.492272   1.000000
   39       -3.413824   1.000000
   40       -3.324683   1.000000
   41       -3.240629   1.000000
   42       -3.113840   1.000000
   43       -3.064566   1.000000
   44       -3.029071   1.000000
   45       -2.920727   1.000000
   46       -2.829205   1.000000
   47       -2.774088   1.000000
   48       -2.710597   1.000000
   49       -2.674372   1.000000
   50       -2.551392   1.000000
   51       -2.540378   1.000000
   52       -2.530074   1.000000
   53       -2.454189   1.000000
   54       -2.330070   1.000000
   55       -2.312888   1.000000
   56       -2.271724   1.000000
   57       -2.252903   1.000000
   58       -2.171309   1.000000
   59       -2.108400   1.000000
   60       -1.897121   1.000000
   61       -1.803011   1.000000
   62       -1.781336   1.000000
   63       -1.579819   1.000000
   64       -1.499774   1.000000
   65       -1.201748   1.000000
   66       -1.100485   1.000000
   67       -1.079147   1.000000
   68       -0.883847   1.000000
   69       -0.839586   1.000000
   70       -0.819862   1.000000
   71       -0.800269   1.000000
   72       -0.773265   1.000000
   73       -0.635463   1.000000
   74       -0.588201   1.000000
   75       -0.466030   1.000000
   76       -0.453878   1.000000
   77       -0.349450   1.000000
   78       -0.285343   1.000001
   79       -0.208588   1.000007
   80       -0.177448   1.000019
   81       -0.128538   1.000082
   82       -0.000893   1.001905
   83        0.083232   1.008952
   84        0.127559   1.016721
   85        0.390299   0.828738
   86        0.435273   0.668936
   87        0.957443  -0.001740
   88        1.278353  -0.000000
   89        1.536138  -0.000000
   90        1.721293  -0.000000
   91        1.795098  -0.000000
   92        1.994148  -0.000000
   93        2.016127  -0.000000
   94        2.070164  -0.000000
   95        2.187544  -0.000000
   96        2.377242  -0.000000
   97        2.438506  -0.000000
   98        2.488190  -0.000000
   99        2.564863  -0.000000
  100        2.604706  -0.000000
  101        2.648400  -0.000000
  102        2.721759  -0.000000
  103        2.737252  -0.000000
  104        2.769388  -0.000000
  105        2.858454  -0.000000
  106        2.953795  -0.000000
  107        2.973776  -0.000000
  108        3.072580  -0.000000
  109        3.114924  -0.000000
  110        3.190922  -0.000000
  111        3.303521  -0.000000
  112        3.377843  -0.000000
  113        3.430587  -0.000000
  114        3.518962  -0.000000
  115        3.564825  -0.000000
  116        3.728005  -0.000000
  117        3.862101  -0.000000
  118        3.932686  -0.000000
  119        4.092540  -0.000000
  120        4.264517  -0.000000
  121        4.811923  -0.000000
  122        4.961999  -0.000000
  123        5.018163  -0.000000
  124        5.138736  -0.000000
  125        5.219590  -0.000000
  126        5.328301  -0.000000
  127        5.513215  -0.000000
  128        5.639248  -0.000000
 
  0.5000000E+00  0.9675708E-31  0.0000000E+00  0.1388889E-01
    1      -10.935729   1.000000
    2      -10.893881   1.000000
    3      -10.872818   1.000000
    4      -10.755138   1.000000
    5      -10.664307   1.000000
    6      -10.563295   1.000000
    7      -10.499706   1.000000
    8      -10.491560   1.000000
    9      -10.481259   1.000000
   10      -10.436408   1.000000
   11      -10.414244   1.000000
   12      -10.391019   1.000000
   13      -10.232279   1.000000
   14      -10.186282   1.000000
   15       -9.795112   1.000000
   16       -9.747201   1.000000
   17       -9.685528   1.000000
   18       -9.622318   1.000000
   19       -8.992914   1.000000
   20       -8.968473   1.000000
   21       -8.651358   1.000000
   22       -8.531468   1.000000
   23       -8.321651   1.000000
   24       -8.314691   1.000000
   25       -8.188757   1.000000
   26       -8.159745   1.000000
   27       -8.098083   1.000000
   28       -8.088411   1.000000
   29       -7.856987   1.000000
   30       -7.791665   1.000000
   31       -4.110534   1.000000
   32       -4.091716   1.000000
   33       -3.894343   1.000000
   34       -3.853995   1.000000
   35       -3.747280   1.000000
   36       -3.742361   1.000000
   37       -3.501783   1.000000
   38       -3.423173   1.000000
   39       -3.310377   1.000000
   40       -3.303895   1.000000
   41       -3.303054   1.000000
   42       -3.232108   1.000000
   43       -3.104008   1.000000
   44       -3.079076   1.000000
   45       -2.908566   1.000000
   46       -2.816994   1.000000
   47       -2.792737   1.000000
   48       -2.780571   1.000000
   49       -2.677111   1.000000
   50       -2.651798   1.000000
   51       -2.593854   1.000000
   52       -2.502721   1.000000
   53       -2.491797   1.000000
   54       -2.461513   1.000000
   55       -2.430718   1.000000
   56       -2.374336   1.000000
   57       -2.213574   1.000000
   58       -2.118408   1.000000
   59       -2.065857   1.000000
   60       -2.029633   1.000000
   61       -1.878668   1.000000
   62       -1.837162   1.000000
   63       -1.613898   1.000000
   64       -1.591997   1.000000
   65       -1.239723   1.000000
   66       -1.168272   1.000000
   67       -0.970783   1.000000
   68       -0.945401   1.000000
   69       -0.818626   1.000000
   70       -0.783802   1.000000
   71       -0.710597   1.000000
   72       -0.704043   1.000000
   73       -0.671059   1.000000
   74       -0.622788   1.000000
   75       -0.579001   1.000000
   76       -0.492856   1.000000
   77       -0.387065   1.000000
   78       -0.367264   1.000000
   79       -0.177055   1.000020
   80       -0.074484   1.000347
   81       -0.066527   1.000424
   82       -0.037143   1.000856
   83        0.008560   1.002317
   84        0.025975   1.003276
   85        0.296340   1.011214
   86        0.300633   1.007300
   87        1.078522  -0.000087
   88        1.080775  -0.000082
   89        1.642574  -0.000000
   90        1.742879  -0.000000
   91        1.799390  -0.000000
   92        1.833621  -0.000000
   93        2.103830  -0.000000
   94        2.186312  -0.000000
   95        2.251178  -0.000000
   96        2.258435  -0.000000
   97        2.459228  -0.000000
   98        2.461998  -0.000000
   99        2.507299  -0.000000
  100        2.601551  -0.000000
  101        2.657604  -0.000000
  102        2.681746  -0.000000
  103        2.784672  -0.000000
  104        2.808457  -0.000000
  105        2.857226  -0.000000
  106        2.929040  -0.000000
  107        2.955705  -0.000000
  108        2.968231  -0.000000
  109        3.076693  -0.000000
  110        3.183356  -0.000000
  111        3.258211  -0.000000
  112        3.343696  -0.000000
  113        3.397999  -0.000000
  114        3.448843  -0.000000
  115        3.650024  -0.000000
  116        3.674376  -0.000000
  117        3.879834  -0.000000
  118        3.909018  -0.000000
  119        4.143363  -0.000000
  120        4.209481  -0.000000
  121        4.836037  -0.000000