       N       E                     dE             d eps       ncg     rms          rms(c)
DAV:   1     0.590365818460E+03    0.59037E+03   -0.43390E+04  7168   0.625E+02
DAV:   2    -0.748551914919E+02   -0.66522E+03   -0.66489E+03 10752   0.106E+02
DAV:   3    -0.103602141536E+03   -0.28747E+02   -0.28673E+02 14208   0.310E+01
DAV:   4    -0.103659125138E+03   -0.56984E-01   -0.56983E-01  8576   0.177E+00
DAV:   5    -0.103660308777E+03   -0.11836E-02   -0.11836E-02 14336   0.245E-01    0.764E+00
RMM:   6    -0.102849412760E+03    0.81090E+00   -0.53970E+00  7168   0.266E+00    0.655E+00
RMM:   7    -0.101037955958E+03    0.18115E+01   -0.11581E+00  7168   0.118E+00    0.339E+00
RMM:   8    -0.100746164166E+03    0.29179E+00   -0.22017E-01  7168   0.500E-01    0.289E+00
RMM:   9    -0.100374942953E+03    0.37122E+00   -0.13121E-01  7168   0.504E-01    0.138E+00
RMM:  10    -0.100336890894E+03    0.38052E-01   -0.87525E-02  7168   0.521E-01    0.353E-01
RMM:  11    -0.100332984439E+03    0.39065E-02   -0.80289E-03  7181   0.158E-01    0.178E-01
RMM:  12    -0.100334594558E+03   -0.16101E-02   -0.14707E-03  7233   0.673E-02    0.140E-01
RMM:  13    -0.100335790462E+03   -0.11959E-02   -0.49547E-04  7248   0.308E-02    0.168E-01
RMM:  14    -0.100335907213E+03   -0.11675E-03   -0.91759E-04  7168   0.480E-02    0.496E-02
RMM:  15    -0.100336784656E+03   -0.87744E-03   -0.46511E-04  7168   0.324E-02    0.294E-02
RMM:  16    -0.100337254753E+03   -0.47010E-03   -0.13952E-04  7168   0.156E-02    0.264E-02
RMM:  17    -0.100337588977E+03   -0.33422E-03   -0.85285E-05  7164   0.125E-02    0.133E-02
RMM:  18    -0.100337917164E+03   -0.32819E-03   -0.75028E-05  7076   0.123E-02    0.707E-03
RMM:  19    -0.100338043797E+03   -0.12663E-03   -0.24158E-05  6448   0.710E-03    0.417E-03
RMM:  20    -0.100338117369E+03   -0.73572E-04   -0.19228E-05  6344   0.638E-03    0.201E-03
RMM:  21    -0.100338131082E+03   -0.13713E-04   -0.34231E-06  5424   0.246E-03    0.126E-03
RMM:  22    -0.100338137425E+03   -0.63431E-05   -0.15891E-06  4807   0.168E-03    0.727E-04
RMM:  23    -0.100338139321E+03   -0.18960E-05   -0.45255E-07  3668   0.898E-04    0.462E-04
RMM:  24    -0.100338140272E+03   -0.95152E-06   -0.21755E-07  3173   0.661E-04
   1 F= -.10033814E+03 E0= -.10034267E+03  d E =-.100338E+03
       N       E                     dE             d eps       ncg     rms          rms(c)
DAV:   1    -0.101397213064E+03   -0.10591E+01   -0.24290E+01  7424   0.820E+00    0.699E-01
RMM:   2    -0.101442152023E+03   -0.44939E-01   -0.70101E-01  7168   0.170E+00    0.342E-01
RMM:   3    -0.101469018002E+03   -0.26866E-01   -0.25840E-02  7192   0.345E-01    0.654E-01
RMM:   4    -0.101437408301E+03    0.31610E-01   -0.54259E-03  7408   0.135E-01    0.174E-01
RMM:   5    -0.101438081618E+03   -0.67332E-03   -0.18677E-03  7168   0.693E-02    0.159E-01
RMM:   6    -0.101438271034E+03   -0.18942E-03   -0.77328E-04  7168   0.381E-02    0.149E-01
RMM:   7    -0.101437095137E+03    0.11759E-02   -0.33187E-04  7187   0.248E-02    0.449E-02
RMM:   8    -0.101437072914E+03    0.22223E-04   -0.63446E-05  7287   0.137E-02    0.182E-02
RMM:   9    -0.101437100315E+03   -0.27401E-04   -0.17171E-05  7168   0.745E-03    0.112E-02
RMM:  10    -0.101437118216E+03   -0.17901E-04   -0.76261E-06  6616   0.459E-03    0.733E-03
RMM:  11    -0.101437130800E+03   -0.12585E-04   -0.31090E-06  5549   0.314E-03    0.302E-03
RMM:  12    -0.101437145418E+03   -0.14617E-04   -0.18819E-06  5182   0.219E-03    0.181E-03
RMM:  13    -0.101437157274E+03   -0.11856E-04   -0.16863E-06  5195   0.179E-03    0.114E-03
RMM:  14    -0.101437164745E+03   -0.74712E-05   -0.10235E-06  4736   0.129E-03    0.726E-04
RMM:  15    -0.101437168627E+03   -0.38823E-05   -0.70721E-07  4089   0.104E-03    0.395E-04
RMM:  16    -0.101437169666E+03   -0.10388E-05   -0.20473E-07  3172   0.630E-04    0.232E-04
RMM:  17    -0.101437170025E+03   -0.35860E-06   -0.92293E-08  2611   0.523E-04
   2 F= -.10143717E+03 E0= -.10144099E+03  d E =-.109903E+01
       N       E                     dE             d eps       ncg     rms          rms(c)
DAV:   1    -0.102348020667E+03   -0.91085E+00   -0.11417E+02  7168   0.179E+01    0.151E+00
RMM:   2    -0.102596355176E+03   -0.24833E+00   -0.35625E+00  7168   0.383E+00    0.947E-01
RMM:   3    -0.102681336419E+03   -0.84981E-01   -0.14409E-01  7222   0.798E-01    0.134E+00
RMM:   4    -0.102550120627E+03    0.13122E+00   -0.27901E-02  7329   0.310E-01    0.402E-01
RMM:   5    -0.102553183219E+03   -0.30626E-02   -0.95505E-03  7169   0.148E-01    0.343E-01
RMM:   6    -0.102552269638E+03    0.91358E-03   -0.53703E-03  7168   0.102E-01    0.338E-01
RMM:   7    -0.102545485608E+03    0.67840E-02   -0.22530E-03  7182   0.673E-02    0.800E-02
RMM:   8    -0.102545634438E+03   -0.14883E-03   -0.35896E-04  7285   0.333E-02    0.425E-02
RMM:   9    -0.102545790734E+03   -0.15630E-03   -0.96879E-05  7201   0.169E-02    0.275E-02
RMM:  10    -0.102545935467E+03   -0.14473E-03   -0.51579E-05  7168   0.122E-02    0.136E-02
RMM:  11    -0.102546085604E+03   -0.15014E-03   -0.29383E-05  7164   0.888E-03    0.680E-03
RMM:  12    -0.102546214830E+03   -0.12923E-03   -0.17864E-05  6413   0.556E-03    0.434E-03
RMM:  13    -0.102546351026E+03   -0.13620E-03   -0.26131E-05  6419   0.591E-03    0.261E-03
RMM:  14    -0.102546408995E+03   -0.57968E-04   -0.10378E-05  5900   0.336E-03    0.174E-03
RMM:  15    -0.102546439017E+03   -0.30022E-04   -0.66653E-06  5692   0.279E-03    0.851E-04
RMM:  16    -0.102546445310E+03   -0.62930E-05   -0.13441E-06  4555   0.133E-03    0.513E-04
RMM:  17    -0.102546447614E+03   -0.23045E-05   -0.49669E-07  3845   0.871E-04    0.262E-04
RMM:  18    -0.102546448225E+03   -0.61066E-06   -0.14501E-07  3086   0.563E-04
   3 F= -.10254645E+03 E0= -.10254710E+03  d E =-.220831E+01
       N       E                     dE             d eps       ncg     rms          rms(c)
DAV:   1    -0.102926304159E+03   -0.37986E+00   -0.21353E+01  7424   0.758E+00    0.621E-01
RMM:   2    -0.103016565265E+03   -0.90261E-01   -0.61230E-01  7168   0.157E+00    0.722E-01
RMM:   3    -0.102975913389E+03    0.40652E-01   -0.26851E-02  7244   0.329E-01    0.377E-01
RMM:   4    -0.102968899639E+03    0.70137E-02   -0.39819E-03  7319   0.123E-01    0.203E-01
RMM:   5    -0.102969387865E+03   -0.48823E-03   -0.16235E-03  7185   0.596E-02    0.179E-01
RMM:   6    -0.102968028681E+03    0.13592E-02   -0.10274E-03  7176   0.443E-02    0.868E-02
RMM:   7    -0.102967550856E+03    0.47782E-03   -0.32492E-04  7169   0.284E-02    0.282E-02
RMM:   8    -0.102967558588E+03   -0.77321E-05   -0.35493E-05  7344   0.108E-02    0.172E-02
RMM:   9    -0.102967583006E+03   -0.24418E-04   -0.17367E-05  7152   0.709E-03    0.908E-03
RMM:  10    -0.102967604533E+03   -0.21527E-04   -0.87125E-06  6722   0.509E-03    0.396E-03
RMM:  11    -0.102967617644E+03   -0.13111E-04   -0.18861E-06  5097   0.240E-03    0.232E-03
RMM:  12    -0.102967631183E+03   -0.13539E-04   -0.23342E-06  5365   0.218E-03    0.114E-03
RMM:  13    -0.102967636823E+03   -0.56400E-05   -0.70249E-07  4672   0.117E-03    0.714E-04
RMM:  14    -0.102967640298E+03   -0.34755E-05   -0.51207E-07  3777   0.855E-04    0.392E-04
RMM:  15    -0.102967641729E+03   -0.14306E-05   -0.27976E-07  3714   0.707E-04    0.216E-04
RMM:  16    -0.102967642134E+03   -0.40490E-06   -0.69118E-08  2443   0.466E-04
   4 F= -.10296764E+03 E0= -.10296803E+03  d E =-.421194E+00
       N       E                     dE             d eps       ncg     rms          rms(c)
DAV:   1    -0.103088476486E+03   -0.12083E+00   -0.27272E+01  7424   0.858E+00    0.686E-01
RMM:   2    -0.103168758703E+03   -0.80282E-01   -0.79004E-01  7168   0.178E+00    0.556E-01
RMM:   3    -0.103157453650E+03    0.11305E-01   -0.31371E-02  7276   0.369E-01    0.422E-01
RMM:   4    -0.103145860550E+03    0.11593E-01   -0.50456E-03  7338   0.137E-01    0.236E-01
RMM:   5    -0.103145349035E+03    0.51151E-03   -0.19028E-03  7187   0.633E-02    0.176E-01
RMM:   6    -0.103143844980E+03    0.15041E-02   -0.14690E-03  7168   0.570E-02    0.783E-02
RMM:   7    -0.103143518380E+03    0.32660E-03   -0.33644E-04  7172   0.292E-02    0.290E-02
RMM:   8    -0.103143533526E+03   -0.15145E-04   -0.36167E-05  7380   0.112E-02    0.168E-02
RMM:   9    -0.103143577836E+03   -0.44310E-04   -0.33140E-05  7168   0.959E-03    0.629E-03
RMM:  10    -0.103143600069E+03   -0.22233E-04   -0.51638E-06  6212   0.410E-03    0.369E-03
RMM:  11    -0.103143616724E+03   -0.16655E-04   -0.23736E-06  5317   0.251E-03    0.214E-03
RMM:  12    -0.103143631098E+03   -0.14374E-04   -0.20382E-06  5253   0.203E-03    0.113E-03
RMM:  13    -0.103143638241E+03   -0.71436E-05   -0.85824E-07  4751   0.123E-03    0.722E-04
RMM:  14    -0.103143642400E+03   -0.41587E-05   -0.59112E-07  3975   0.906E-04    0.393E-04
RMM:  15    -0.103143643993E+03   -0.15932E-05   -0.27437E-07  3643   0.690E-04    0.233E-04
RMM:  16    -0.103143644515E+03   -0.52145E-06   -0.90352E-08  2672   0.507E-04
   5 F= -.10314364E+03 E0= -.10314709E+03  d E =-.597196E+00
       N       E                     dE             d eps       ncg     rms          rms(c)
DAV:   1    -0.103331750475E+03   -0.18811E+00   -0.19634E+01  7680   0.696E+00    0.548E-01
RMM:   2    -0.103371204743E+03   -0.39454E-01   -0.50742E-01  7168   0.139E+00    0.287E-01
RMM:   3    -0.103374680087E+03   -0.34753E-02   -0.18178E-02  7238   0.284E-01    0.300E-01
RMM:   4    -0.103366980018E+03    0.77001E-02   -0.32027E-03  7412   0.106E-01    0.144E-01
RMM:   5    -0.103366406277E+03    0.57374E-03   -0.99294E-04  7177   0.509E-02    0.694E-02
RMM:   6    -0.103366625268E+03   -0.21899E-03   -0.39132E-04  7168   0.323E-02    0.566E-02
RMM:   7    -0.103366357087E+03    0.26818E-03   -0.79108E-05  7371   0.130E-02    0.209E-02
RMM:   8    -0.103366364922E+03   -0.78347E-05   -0.15857E-05  7069   0.684E-03    0.105E-02
RMM:   9    -0.103366388737E+03   -0.23815E-04   -0.10569E-05  6709   0.524E-03    0.534E-03
RMM:  10    -0.103366405050E+03   -0.16313E-04   -0.26405E-06  5354   0.270E-03    0.267E-03
RMM:  11    -0.103366421701E+03   -0.16651E-04   -0.14600E-06  4970   0.183E-03    0.164E-03
RMM:  12    -0.103366441715E+03   -0.20014E-04   -0.25266E-06  5217   0.183E-03    0.836E-04
RMM:  13    -0.103366450525E+03   -0.88102E-05   -0.11522E-06  4453   0.118E-03    0.552E-04
RMM:  14    -0.103366454457E+03   -0.39318E-05   -0.60467E-07  3866   0.848E-04    0.302E-04
RMM:  15    -0.103366455620E+03   -0.11629E-05   -0.24276E-07  3281   0.637E-04    0.166E-04
RMM:  16    -0.103366455855E+03   -0.23530E-06   -0.60717E-08  2380   0.467E-04
   6 F= -.10336646E+03 E0= -.10337079E+03  d E =-.222811E+00
       N       E                     dE             d eps       ncg     rms          rms(c)
DAV:   1    -0.103392087441E+03   -0.25632E-01   -0.92725E+00  7680   0.479E+00    0.375E-01
RMM:   2    -0.103411056157E+03   -0.18969E-01   -0.23927E-01  7168   0.956E-01    0.204E-01
RMM:   3    -0.103413042698E+03   -0.19865E-02   -0.85900E-03  7232   0.195E-01    0.236E-01
RMM:   4    -0.103408698680E+03    0.43440E-02   -0.15611E-03  7370   0.732E-02    0.936E-02
RMM:   5    -0.103408586028E+03    0.11265E-03   -0.47541E-04  7178   0.350E-02    0.543E-02
RMM:   6    -0.103408677322E+03   -0.91294E-04   -0.19558E-04  7168   0.201E-02    0.559E-02
RMM:   7    -0.103408445909E+03    0.23141E-03   -0.71853E-05  7181   0.126E-02    0.121E-02
RMM:   8    -0.103408454758E+03   -0.88488E-05   -0.84913E-06  6825   0.533E-03    0.676E-03
RMM:   9    -0.103408467567E+03   -0.12809E-04   -0.52053E-06  6243   0.385E-03    0.265E-03
RMM:  10    -0.103408477156E+03   -0.95888E-05   -0.12185E-06  4851   0.205E-03    0.143E-03
RMM:  11    -0.103408484740E+03   -0.75840E-05   -0.81356E-07  4743   0.133E-03    0.837E-04
RMM:  12    -0.103408488495E+03   -0.37556E-05   -0.30047E-07  3873   0.807E-04    0.620E-04
RMM:  13    -0.103408491762E+03   -0.32672E-05   -0.40353E-07  4122   0.823E-04    0.381E-04
RMM:  14    -0.103408493240E+03   -0.14778E-05   -0.18029E-07  3087   0.593E-04    0.206E-04
RMM:  15    -0.103408493734E+03   -0.49420E-06   -0.11816E-07  2778   0.553E-04
   7 F= -.10340849E+03 E0= -.10341311E+03  d E =-.264849E+00
       N       E                     dE             d eps       ncg     rms          rms(c)
DAV:   1    -0.103555692625E+03   -0.14720E+00   -0.24966E+01  7168   0.781E+00    0.597E-01
RMM:   2    -0.103610251643E+03   -0.54559E-01   -0.62643E-01  7168   0.152E+00    0.356E-01
RMM:   3    -0.103609783078E+03    0.46857E-03   -0.21996E-02  7235   0.309E-01    0.314E-01
RMM:   4    -0.103602928622E+03    0.68545E-02   -0.32094E-03  7351   0.113E-01    0.132E-01
RMM:   5    -0.103604406601E+03   -0.14780E-02   -0.12865E-03  7178   0.563E-02    0.137E-01
RMM:   6    -0.103602684457E+03    0.17221E-02   -0.49824E-04  7185   0.327E-02    0.345E-02
RMM:   7    -0.103602671968E+03    0.12489E-04   -0.61019E-05  7384   0.142E-02    0.162E-02
RMM:   8    -0.103602687733E+03   -0.15765E-04   -0.12828E-05  7046   0.627E-03    0.952E-03
RMM:   9    -0.103602713826E+03   -0.26093E-04   -0.84171E-06  6785   0.498E-03    0.430E-03
RMM:  10    -0.103602730904E+03   -0.17077E-04   -0.18764E-06  5037   0.238E-03    0.253E-03
RMM:  11    -0.103602751296E+03   -0.20393E-04   -0.21450E-06  5158   0.203E-03    0.145E-03
RMM:  12    -0.103602765386E+03   -0.14090E-04   -0.15300E-06  4989   0.153E-03    0.866E-04
RMM:  13    -0.103602772459E+03   -0.70730E-05   -0.81527E-07  4386   0.105E-03    0.527E-04
RMM:  14    -0.103602775960E+03   -0.35009E-05   -0.52717E-07  3891   0.859E-04    0.257E-04
RMM:  15    -0.103602776704E+03   -0.74438E-06   -0.12011E-07  2883   0.535E-04
   8 F= -.10360278E+03 E0= -.10360721E+03  d E =-.194283E+00
       N       E                     dE             d eps       ncg     rms          rms(c)
DAV:   1    -0.103617483439E+03   -0.14707E-01   -0.69584E+00  7168   0.412E+00    0.315E-01
RMM:   2    -0.103633136105E+03   -0.15653E-01   -0.17475E-01  7168   0.805E-01    0.201E-01
RMM:   3    -0.103631960254E+03    0.11759E-02   -0.62285E-03  7239   0.164E-01    0.158E-01
RMM:   4    -0.103630456874E+03    0.15034E-02   -0.85616E-04  7346   0.593E-02    0.718E-02
RMM:   5    -0.103630871385E+03   -0.41451E-03   -0.33433E-04  7203   0.278E-02    0.776E-02
RMM:   6    -0.103630351602E+03    0.51978E-03   -0.16393E-04  7174   0.197E-02    0.150E-02
RMM:   7    -0.103630356233E+03   -0.46310E-05   -0.14712E-05  7276   0.751E-03    0.737E-03
RMM:   8    -0.103630362108E+03   -0.58748E-05   -0.45540E-06  6203   0.371E-03    0.419E-03
RMM:   9    -0.103630366786E+03   -0.46776E-05   -0.13151E-06  4747   0.228E-03    0.191E-03
RMM:  10    -0.103630370995E+03   -0.42095E-05   -0.49334E-07  4583   0.133E-03    0.106E-03
RMM:  11    -0.103630374734E+03   -0.37387E-05   -0.36030E-07  4523   0.979E-04    0.620E-04
RMM:  12    -0.103630377090E+03   -0.23560E-05   -0.22746E-07  3664   0.717E-04    0.392E-04
RMM:  13    -0.103630378419E+03   -0.13287E-05   -0.15277E-07  3298   0.623E-04    0.238E-04
RMM:  14    -0.103630379099E+03   -0.68068E-06   -0.15022E-07  3039   0.583E-04
   9 F= -.10363038E+03 E0= -.10363409E+03  d E =-.221885E+00
       N       E                     dE             d eps       ncg     rms          rms(c)
DAV:   1    -0.103703126139E+03   -0.72748E-01   -0.87954E+00  7168   0.463E+00    0.348E-01
RMM:   2    -0.103723201315E+03   -0.20075E-01   -0.22999E-01  7168   0.921E-01    0.209E-01
RMM:   3    -0.103722090752E+03    0.11106E-02   -0.83444E-03  7244   0.189E-01    0.170E-01
RMM:   4    -0.103720364894E+03    0.17259E-02   -0.11436E-03  7393   0.682E-02    0.805E-02
RMM:   5    -0.103720595103E+03   -0.23021E-03   -0.39555E-04  7170   0.341E-02    0.639E-02
RMM:   6    -0.103720325365E+03    0.26974E-03   -0.15151E-04  7202   0.177E-02    0.240E-02
RMM:   7    -0.103720282449E+03    0.42916E-04   -0.23415E-05  7268   0.805E-03    0.933E-03
RMM:   8    -0.103720284985E+03   -0.25355E-05   -0.67307E-06  6521   0.434E-03    0.474E-03
RMM:   9    -0.103720290247E+03   -0.52628E-05   -0.31021E-06  5519   0.304E-03    0.229E-03
RMM:  10    -0.103720293716E+03   -0.34690E-05   -0.58288E-07  4546   0.151E-03    0.148E-03
RMM:  11    -0.103720297461E+03   -0.37450E-05   -0.39941E-07  4501   0.108E-03    0.927E-04
RMM:  12    -0.103720300880E+03   -0.34186E-05   -0.41811E-07  4464   0.962E-04    0.504E-04
RMM:  13    -0.103720302565E+03   -0.16854E-05   -0.15436E-07  3170   0.596E-04    0.327E-04
RMM:  14    -0.103720303690E+03   -0.11250E-05   -0.19744E-07  3473   0.656E-04    0.155E-04
RMM:  15    -0.103720303959E+03   -0.26908E-06   -0.31674E-08  2151   0.435E-04
  10 F= -.10372030E+03 E0= -.10372342E+03  d E =-.899249E-01
       N       E                     dE             d eps       ncg     rms          rms(c)
DAV:   1    -0.103731738174E+03   -0.11434E-01   -0.11152E+01  7168   0.520E+00    0.390E-01
RMM:   2    -0.103757316828E+03   -0.25579E-01   -0.29182E-01  7168   0.103E+00    0.238E-01
RMM:   3    -0.103755798085E+03    0.15187E-02   -0.10514E-02  7228   0.212E-01    0.191E-01
RMM:   4    -0.103753754292E+03    0.20438E-02   -0.14544E-03  7383   0.771E-02    0.922E-02
RMM:   5    -0.103754269005E+03   -0.51471E-03   -0.48972E-04  7181   0.364E-02    0.881E-02
RMM:   6    -0.103753653297E+03    0.61571E-03   -0.26273E-04  7181   0.233E-02    0.230E-02
RMM:   7    -0.103753626985E+03    0.26311E-04   -0.28842E-05  7310   0.929E-03    0.106E-02
RMM:   8    -0.103753629782E+03   -0.27964E-05   -0.83121E-06  6636   0.484E-03    0.575E-03
RMM:   9    -0.103753635626E+03   -0.58442E-05   -0.37534E-06  5803   0.329E-03    0.292E-03
RMM:  10    -0.103753640212E+03   -0.45861E-05   -0.86727E-07  4641   0.180E-03    0.171E-03
RMM:  11    -0.103753645298E+03   -0.50859E-05   -0.56149E-07  4639   0.125E-03    0.101E-03
RMM:  12    -0.103753649706E+03   -0.44084E-05   -0.51116E-07  4589   0.105E-03    0.571E-04
RMM:  13    -0.103753651945E+03   -0.22388E-05   -0.21688E-07  3445   0.663E-04    0.366E-04
RMM:  14    -0.103753653372E+03   -0.14271E-05   -0.23299E-07  3732   0.691E-04    0.175E-04
RMM:  15    -0.103753653730E+03   -0.35809E-06   -0.41428E-08  2274   0.443E-04
  11 F= -.10375365E+03 E0= -.10375635E+03  d E =-.123275E+00
       N       E                     dE             d eps       ncg     rms          rms(c)
DAV:   1    -0.103790943585E+03   -0.37290E-01   -0.10135E+01  7168   0.498E+00    0.366E-01
RMM:   2    -0.103811109797E+03   -0.20166E-01   -0.25096E-01  7168   0.979E-01    0.182E-01
RMM:   3    -0.103811504711E+03   -0.39491E-03   -0.82707E-03  7250   0.198E-01    0.145E-01
RMM:   4    -0.103810695544E+03    0.80917E-03   -0.11329E-03  7450   0.697E-02    0.928E-02
RMM:   5    -0.103810804360E+03   -0.10882E-03   -0.51161E-04  7168   0.379E-02    0.590E-02
RMM:   6    -0.103810480364E+03    0.32400E-03   -0.13088E-04  7242   0.168E-02    0.185E-02
RMM:   7    -0.103810468743E+03    0.11621E-04   -0.16929E-05  7171   0.725E-03    0.929E-03
RMM:   8    -0.103810473166E+03   -0.44232E-05   -0.65367E-06  6421   0.419E-03    0.485E-03
RMM:   9    -0.103810479839E+03   -0.66731E-05   -0.27051E-06  5381   0.288E-03    0.253E-03
RMM:  10    -0.103810485772E+03   -0.59330E-05   -0.72707E-07  4683   0.157E-03    0.156E-03
RMM:  11    -0.103810493730E+03   -0.79572E-05   -0.77588E-07  4749   0.133E-03    0.100E-03
RMM:  12    -0.103810501066E+03   -0.73361E-05   -0.86132E-07  4716   0.121E-03    0.648E-04
RMM:  13    -0.103810505137E+03   -0.40710E-05   -0.47262E-07  3925   0.854E-04    0.394E-04
RMM:  14    -0.103810506817E+03   -0.16801E-05   -0.25944E-07  3548   0.683E-04    0.217E-04
RMM:  15    -0.103810507330E+03   -0.51341E-06   -0.87778E-08  2694   0.520E-04
  12 F= -.10381051E+03 E0= -.10381255E+03  d E =-.568536E-01
       N       E                     dE             d eps       ncg     rms          rms(c)
DAV:   1    -0.103812568507E+03   -0.20617E-02   -0.26091E+00  7680   0.252E+00    0.184E-01
RMM:   2    -0.103817607514E+03   -0.50390E-02   -0.62698E-02  7168   0.490E-01    0.926E-02
RMM:   3    -0.103817748929E+03   -0.14141E-03   -0.20989E-03  7254   0.992E-02    0.784E-02
RMM:   4    -0.103817454449E+03    0.29448E-03   -0.29489E-04  7429   0.350E-02    0.457E-02
RMM:   5    -0.103817523441E+03   -0.68992E-04   -0.12341E-04  7169   0.182E-02    0.360E-02
RMM:   6    -0.103817399936E+03    0.12350E-03   -0.45734E-05  7176   0.987E-03    0.847E-03
RMM:   7    -0.103817398332E+03    0.16046E-05   -0.44901E-06  6091   0.395E-03    0.441E-03
RMM:   8    -0.103817399605E+03   -0.12730E-05   -0.18559E-06  4927   0.251E-03    0.231E-03
RMM:   9    -0.103817401172E+03   -0.15671E-05   -0.65727E-07  4348   0.159E-03    0.116E-03
RMM:  10    -0.103817402830E+03   -0.16587E-05   -0.21284E-07  4030   0.944E-04    0.817E-04
RMM:  11    -0.103817405034E+03   -0.22041E-05   -0.22843E-07  4007   0.831E-04    0.478E-04
RMM:  12    -0.103817406950E+03   -0.19157E-05   -0.22059E-07  3759   0.721E-04    0.318E-04
RMM:  13    -0.103817408196E+03   -0.12456E-05   -0.19428E-07  3440   0.645E-04    0.165E-04
RMM:  14    -0.103817408567E+03   -0.37159E-06   -0.60465E-08  2319   0.487E-04
  13 F= -.10381741E+03 E0= -.10381919E+03  d E =-.637548E-01
       N       E                     dE             d eps       ncg     rms          rms(c)
DAV:   1    -0.103822888194E+03   -0.54800E-02   -0.12444E+01  7168   0.545E+00    0.407E-01
RMM:   2    -0.103849840965E+03   -0.26953E-01   -0.31187E-01  7168   0.108E+00    0.250E-01
RMM:   3    -0.103847746854E+03    0.20941E-02   -0.11562E-02  7269   0.223E-01    0.202E-01
RMM:   4    -0.103845871455E+03    0.18754E-02   -0.16465E-03  7327   0.786E-02    0.116E-01
RMM:   5    -0.103845843475E+03    0.27981E-04   -0.62870E-04  7188   0.380E-02    0.911E-02
RMM:   6    -0.103845351599E+03    0.49188E-03   -0.39234E-04  7168   0.308E-02    0.246E-02
RMM:   7    -0.103845355274E+03   -0.36748E-05   -0.40904E-05  7371   0.117E-02    0.120E-02
RMM:   8    -0.103845362831E+03   -0.75567E-05   -0.11269E-05  6802   0.570E-03    0.636E-03
RMM:   9    -0.103845371375E+03   -0.85445E-05   -0.58440E-06  6207   0.404E-03    0.270E-03
RMM:  10    -0.103845376710E+03   -0.53352E-05   -0.90426E-07  4728   0.183E-03    0.162E-03
RMM:  11    -0.103845381603E+03   -0.48925E-05   -0.73834E-07  4681   0.139E-03    0.888E-04
RMM:  12    -0.103845385109E+03   -0.35060E-05   -0.41329E-07  4356   0.944E-04    0.559E-04
RMM:  13    -0.103845387457E+03   -0.23484E-05   -0.30158E-07  3692   0.757E-04    0.305E-04
RMM:  14    -0.103845388426E+03   -0.96908E-06   -0.15242E-07  3115   0.612E-04
  14 F= -.10384539E+03 E0= -.10384567E+03  d E =-.279799E-01
       N       E                     dE             d eps       ncg     rms          rms(c)
DAV:   1    -0.103846683753E+03   -0.12963E-02   -0.52132E-01  8960   0.111E+00    0.832E-02
RMM:   2    -0.103847690472E+03   -0.10067E-02   -0.11930E-02  7168   0.213E-01    0.512E-02
RMM:   3    -0.103847597200E+03    0.93272E-04   -0.46219E-04  7297   0.443E-02    0.414E-02
RMM:   4    -0.103847517310E+03    0.79890E-04   -0.66939E-05  7319   0.155E-02    0.234E-02
RMM:   5    -0.103847515469E+03    0.18413E-05   -0.25489E-05  7135   0.761E-03    0.185E-02
RMM:   6    -0.103847492185E+03    0.23283E-04   -0.14851E-05  6796   0.595E-03    0.553E-03
RMM:   7    -0.103847491702E+03    0.48345E-06   -0.15957E-06  4808   0.253E-03
  15 F= -.10384749E+03 E0= -.10384803E+03  d E =-.300831E-01
       N       E                     dE             d eps       ncg     rms          rms(c)
DAV:   1    -0.103861689971E+03   -0.14198E-01   -0.71276E+00  7168   0.412E+00    0.285E-01
RMM:   2    -0.103876256499E+03   -0.14567E-01   -0.16943E-01  7168   0.799E-01    0.149E-01
RMM:   3    -0.103876083960E+03    0.17254E-03   -0.51233E-03  7256   0.158E-01    0.105E-01
RMM:   4    -0.103875830079E+03    0.25388E-03   -0.71533E-04  7416   0.552E-02    0.731E-02
RMM:   5    -0.103875826034E+03    0.40453E-05   -0.26441E-04  7184   0.259E-02    0.515E-02
RMM:   6    -0.103875640074E+03    0.18596E-03   -0.11282E-04  7198   0.151E-02    0.196E-02
RMM:   7    -0.103875624411E+03    0.15663E-04   -0.14890E-05  7091   0.693E-03    0.768E-03
RMM:   8    -0.103875627323E+03   -0.29118E-05   -0.53812E-06  6254   0.389E-03    0.363E-03
RMM:   9    -0.103875630268E+03   -0.29455E-05   -0.16372E-06  4907   0.230E-03    0.177E-03
RMM:  10    -0.103875632888E+03   -0.26193E-05   -0.46595E-07  4418   0.133E-03    0.103E-03
RMM:  11    -0.103875635010E+03   -0.21222E-05   -0.27418E-07  4199   0.926E-04    0.560E-04
RMM:  12    -0.103875636331E+03   -0.13214E-05   -0.16209E-07  3342   0.680E-04    0.326E-04
RMM:  13    -0.103875636974E+03   -0.64310E-06   -0.80978E-08  2723   0.561E-04
  16 F= -.10387564E+03 E0= -.10387543E+03  d E =-.281453E-01
       N       E                     dE             d eps       ncg     rms          rms(c)
DAV:   1    -0.103875986870E+03   -0.35054E-03   -0.87185E-01  7424   0.144E+00    0.100E-01
RMM:   2    -0.103877705360E+03   -0.17185E-02   -0.20239E-02  7168   0.277E-01    0.520E-02
RMM:   3    -0.103877687525E+03    0.17835E-04   -0.61860E-04  7268   0.548E-02    0.367E-02
RMM:   4    -0.103877664120E+03    0.23405E-04   -0.87344E-05  7417   0.191E-02    0.265E-02
RMM:   5    -0.103877653306E+03    0.10814E-04   -0.32098E-05  7148   0.898E-03    0.172E-02
RMM:   6    -0.103877633982E+03    0.19324E-04   -0.13252E-05  6717   0.526E-03    0.677E-03
RMM:   7    -0.103877632054E+03    0.19272E-05   -0.16089E-06  4833   0.252E-03    0.266E-03
RMM:   8    -0.103877632533E+03   -0.47835E-06   -0.77588E-07  4206   0.171E-03
  17 F= -.10387763E+03 E0= -.10387717E+03  d E =-.301408E-01
       N       E                     dE             d eps       ncg     rms          rms(c)
DAV:   1    -0.103889300408E+03   -0.11668E-01   -0.64037E+00  7168   0.395E+00    0.262E-01
RMM:   2    -0.103903228845E+03   -0.13928E-01   -0.15544E-01  7168   0.770E-01    0.140E-01
RMM:   3    -0.103903367860E+03   -0.13901E-03   -0.49203E-03  7287   0.154E-01    0.955E-02
RMM:   4    -0.103903343672E+03    0.24188E-04   -0.62150E-04  7431   0.520E-02    0.769E-02
RMM:   5    -0.103903333562E+03    0.10111E-04   -0.32516E-04  7168   0.282E-02    0.470E-02
RMM:   6    -0.103903129327E+03    0.20423E-03   -0.78903E-05  7206   0.133E-02    0.127E-02
RMM:   7    -0.103903126073E+03    0.32542E-05   -0.84688E-06  6634   0.537E-03    0.656E-03
RMM:   8    -0.103903128862E+03   -0.27897E-05   -0.54253E-06  6140   0.363E-03    0.304E-03
RMM:   9    -0.103903132271E+03   -0.34081E-05   -0.12390E-06  4742   0.213E-03    0.150E-03
RMM:  10    -0.103903135576E+03   -0.33053E-05   -0.48016E-07  4465   0.127E-03    0.922E-04
RMM:  11    -0.103903138929E+03   -0.33536E-05   -0.40265E-07  4468   0.101E-03    0.510E-04
RMM:  12    -0.103903140692E+03   -0.17622E-05   -0.17550E-07  3305   0.666E-04    0.348E-04
RMM:  13    -0.103903141886E+03   -0.11941E-05   -0.20811E-07  3511   0.678E-04    0.170E-04
RMM:  14    -0.103903142197E+03   -0.31098E-06   -0.50128E-08  2304   0.474E-04
  18 F= -.10390314E+03 E0= -.10390235E+03  d E =-.255097E-01
       N       E                     dE             d eps       ncg     rms          rms(c)
DAV:   1    -0.103898512635E+03    0.46293E-02   -0.57936E+00  7168   0.376E+00    0.248E-01
RMM:   2    -0.103911120565E+03   -0.12608E-01   -0.14048E-01  7168   0.733E-01    0.133E-01
RMM:   3    -0.103911239072E+03   -0.11851E-03   -0.44320E-03  7285   0.147E-01    0.906E-02
RMM:   4    -0.103911229442E+03    0.96296E-05   -0.55920E-04  7413   0.496E-02    0.737E-02
RMM:   5    -0.103911200529E+03    0.28913E-04   -0.29358E-04  7173   0.269E-02    0.440E-02
RMM:   6    -0.103911026501E+03    0.17403E-03   -0.71625E-05  7202   0.128E-02    0.121E-02
RMM:   7    -0.103911023252E+03    0.32497E-05   -0.75807E-06  6547   0.513E-03    0.625E-03
RMM:   8    -0.103911025351E+03   -0.20993E-05   -0.49437E-06  6048   0.349E-03    0.286E-03
RMM:   9    -0.103911028107E+03   -0.27559E-05   -0.11078E-06  4671   0.205E-03    0.140E-03
RMM:  10    -0.103911030864E+03   -0.27577E-05   -0.42225E-07  4341   0.122E-03    0.858E-04
RMM:  11    -0.103911033680E+03   -0.28160E-05   -0.34237E-07  4391   0.960E-04    0.473E-04
RMM:  12    -0.103911035144E+03   -0.14636E-05   -0.13399E-07  3117   0.630E-04    0.326E-04
RMM:  13    -0.103911036173E+03   -0.10285E-05   -0.19109E-07  3389   0.661E-04    0.168E-04
RMM:  14    -0.103911036464E+03   -0.29128E-06   -0.42283E-08  2214   0.464E-04
  19 F= -.10391104E+03 E0= -.10391005E+03  d E =-.334039E-01
       N       E                     dE             d eps       ncg     rms          rms(c)
DAV:   1    -0.103909422093E+03    0.16141E-02   -0.92474E+00  7168   0.476E+00    0.332E-01
RMM:   2    -0.103929732611E+03   -0.20311E-01   -0.23831E-01  7168   0.945E-01    0.167E-01
RMM:   3    -0.103929649458E+03    0.83153E-04   -0.73264E-03  7289   0.188E-01    0.118E-01
RMM:   4    -0.103929673023E+03   -0.23565E-04   -0.10009E-03  7398   0.649E-02    0.932E-02
RMM:   5    -0.103929335261E+03    0.33776E-03   -0.39793E-04  7186   0.331E-02    0.432E-02
RMM:   6    -0.103929281542E+03    0.53719E-04   -0.12314E-04  7212   0.173E-02    0.198E-02
RMM:   7    -0.103929259325E+03    0.22217E-04   -0.16679E-05  7162   0.706E-03    0.924E-03
RMM:   8    -0.103929265091E+03   -0.57659E-05   -0.85560E-06  6586   0.472E-03    0.401E-03
RMM:   9    -0.103929270621E+03   -0.55297E-05   -0.22193E-06  5186   0.270E-03    0.187E-03
RMM:  10    -0.103929274768E+03   -0.41473E-05   -0.55431E-07  4622   0.143E-03    0.121E-03
RMM:  11    -0.103929279869E+03   -0.51010E-05   -0.66089E-07  4729   0.126E-03    0.635E-04
RMM:  12    -0.103929282436E+03   -0.25676E-05   -0.28956E-07  3877   0.781E-04    0.458E-04
RMM:  13    -0.103929284247E+03   -0.18102E-05   -0.24072E-07  3653   0.701E-04    0.252E-04
RMM:  14    -0.103929284918E+03   -0.67111E-06   -0.11809E-07  2932   0.568E-04
  20 F= -.10392928E+03 E0= -.10392769E+03  d E =-.182485E-01
