Tetradymite Slab                        
           1
     3.750449    0.000000   -2.165323
     0.000000   31.337301    0.000000
     0.000000    0.000000   17.322584
   Sb   Te
  12  18
Direct configuration=     1
   0.66666700  0.06339322  0.04166662
   0.66666700  0.26994078  0.04166662
   0.00000000  0.39672622  0.20833338
   0.00000000  0.60327378  0.20833338
   0.33333300  0.73005922  0.12500012
   0.33333300  0.93660678  0.12500012
   0.66666700  0.06339322  0.29166662
   0.66666700  0.26994078  0.29166662
   0.00000000  0.39672622  0.45833338
   0.00000000  0.60327378  0.45833338
   0.33333300  0.73005922  0.37500012
   0.33333300  0.93660678  0.37500012
   0.00000000  0.21537671  0.20833338
   0.33333300  0.11795629  0.12500012
   0.00000000  0.00000000  0.20833338
   0.33333300  0.54870971  0.12500012
   0.66666700  0.45129029  0.04166662
   0.33333300  0.33333300  0.12500012
   0.66666700  0.88204371  0.04166662
   0.00000000  0.78462329  0.20833338
   0.66666700  0.66666700  0.04166662
   0.00000000  0.21537671  0.45833338
   0.33333300  0.11795629  0.37500012
   0.00000000  0.00000000  0.45833338
   0.33333300  0.54870971  0.37500012
   0.66666700  0.45129029  0.29166662
   0.33333300  0.33333300  0.37500012
   0.66666700  0.88204371  0.29166662
   0.00000000  0.78462329  0.45833338
   0.66666700  0.66666700  0.29166662
Direct configuration=     2
   0.66666700  0.06339322  0.04166662
   0.67589132  0.27036500  0.04627879
  -0.00607749  0.39764777  0.20529463
  -0.00914899  0.60303253  0.20375888
   0.33167952  0.72853824  0.12417339
   0.33196650  0.93435067  0.12431687
   0.67581614  0.06363424  0.29624119
   0.66666700  0.26994078  0.29166662
   0.00000000  0.39672622  0.45833338
  -0.00702817  0.60244374  0.45481929
   0.33469964  0.73231558  0.37568344
   0.33498682  0.93812792  0.37582703
  -0.00531234  0.21600763  0.20567721
   0.32812855  0.11680054  0.12239790
  -0.00151399  0.00034284  0.20757638
   0.33333300  0.54870971  0.12500012
   0.67202664  0.45107598  0.04434644
   0.32771180  0.33247184  0.12218952
   0.66920428  0.88309919  0.04293526
   0.00274178  0.78442093  0.20970427
   0.67203137  0.66698923  0.04434881
  -0.00535952  0.21559101  0.45565361
   0.33333300  0.11795629  0.37500012
   0.00000000  0.00000000  0.45833338
   0.33853722  0.54986569  0.37760223
   0.67197933  0.45065934  0.29432279
   0.33895407  0.33419429  0.37781066
   0.66392517  0.88224591  0.29029571
  -0.00253752  0.78356768  0.45706461
   0.66818088  0.66632406  0.29242356
Direct configuration=     3
   0.66666700  0.06339322  0.04166662
   0.69596481  0.27128816  0.05631553
  -0.01930301  0.39965321  0.19868187
  -0.02905856  0.60250753  0.19380409
   0.32808131  0.72522836  0.12237428
   0.32899278  0.92944103  0.12283002
   0.69572603  0.06415873  0.30619614
   0.66666700  0.26994078  0.29166662
   0.00000000  0.39672622  0.45833338
  -0.02232251  0.60063746  0.44717212
   0.33767364  0.73722575  0.37717044
   0.33858577  0.94143816  0.37762651
  -0.01687277  0.21738060  0.19989699
   0.31680291  0.11428546  0.11673508
  -0.00480867  0.00108892  0.20592904
   0.33333300  0.54870971  0.12500012
   0.68369000  0.45060961  0.05017813
   0.31547922  0.33059782  0.11607323
   0.67472577  0.88539607  0.04569601
   0.00870830  0.78398057  0.21268753
   0.68370504  0.66769045  0.05018565
  -0.01702264  0.21605736  0.44982205
   0.33333300  0.11795629  0.37500012
   0.00000000  0.00000000  0.45833338
   0.34986237  0.55238127  0.38326481
   0.68353974  0.44928630  0.30010300
   0.35118637  0.33606857  0.38392681
   0.65795855  0.88268593  0.28731240
  -0.00805955  0.78127053  0.45430360
   0.67147530  0.66557778  0.29407078
Direct configuration=     4
   0.66666700  0.06339322  0.04166662
   0.69716869  0.27286662  0.05691747
  -0.02285905  0.40104836  0.19690385
  -0.03550406  0.60278451  0.19058135
   0.33094505  0.72430135  0.12380615
   0.33368101  0.92932592  0.12517413
   0.70316613  0.06355549  0.30991619
   0.66666700  0.26994078  0.29166662
   0.00000000  0.39672622  0.45833338
  -0.02496884  0.60192997  0.44584896
   0.33299136  0.73738175  0.37482931
   0.33663720  0.94294178  0.37665223
  -0.01524863  0.21702927  0.20070906
   0.31215955  0.11315082  0.11441340
  -0.00538184  0.00147303  0.20564245
   0.33333300  0.54870971  0.12500012
   0.68766967  0.45070139  0.05216796
   0.30732392  0.33023704  0.11199558
   0.66977920  0.88443407  0.04322272
   0.00901579  0.78348670  0.21284127
   0.68625271  0.66729994  0.05145948
  -0.02621587  0.21668200  0.44522544
   0.33333300  0.11795629  0.37500012
   0.00000000  0.00000000  0.45833338
   0.34900437  0.55175090  0.38283581
   0.68887388  0.44858802  0.30277007
   0.36123364  0.33688457  0.38895045
   0.65833597  0.88325505  0.28750111
  -0.00299257  0.78229158  0.45683709
   0.67198285  0.66505327  0.29432455
Direct configuration=     5
   0.66666700  0.06339322  0.04166662
   0.69853045  0.27465208  0.05759835
  -0.02688144  0.40262648  0.19489265
  -0.04279483  0.60309780  0.18693596
   0.33418434  0.72325277  0.12542580
   0.33898407  0.92919572  0.12782566
   0.71158194  0.06287315  0.31412410
   0.66666700  0.26994078  0.29166662
   0.00000000  0.39672622  0.45833338
  -0.02796221  0.60339198  0.44435227
   0.32769504  0.73755821  0.37218114
   0.33443309  0.94464259  0.37555017
  -0.01341149  0.21663185  0.20162763
   0.30690725  0.11186739  0.11178725
  -0.00603018  0.00190751  0.20531828
   0.33333300  0.54870971  0.12500012
   0.69217126  0.45080520  0.05441875
   0.29809911  0.32982895  0.10738318
   0.66418391  0.88334591  0.04042508
   0.00936360  0.78292807  0.21301517
   0.68913448  0.66685820  0.05290037
  -0.03661473  0.21738856  0.44002601
   0.33333300  0.11795629  0.37500012
   0.00000000  0.00000000  0.45833338
   0.34803385  0.55103786  0.38235055
   0.69490756  0.44779816  0.30578691
   0.37259855  0.33780759  0.39463290
   0.65876289  0.88389880  0.28771457
   0.00273890  0.78344653  0.45970283
   0.67255696  0.66445999  0.29461161
Direct configuration=     6
   0.66666700  0.06339322  0.04166662
   0.69520894  0.27507783  0.05593759
  -0.02102280  0.40288879  0.19782198
  -0.04285593  0.60280007  0.18690541
   0.33865554  0.72304218  0.12766139
   0.33809044  0.92901304  0.12737885
   0.71510239  0.06225080  0.31588432
   0.66666700  0.26994078  0.29166662
   0.00000000  0.39672622  0.45833338
  -0.03052130  0.60422611  0.44307272
   0.32987276  0.73784538  0.37327001
   0.32890310  0.94558883  0.37278518
  -0.01138753  0.21703262  0.20263961
   0.30532986  0.11166458  0.11099855
  -0.00482585  0.00201385  0.20592045
   0.33333300  0.54870971  0.12500012
   0.68734297  0.45241355  0.05200461
   0.29001392  0.33094316  0.10334059
   0.66135284  0.88280529  0.03900955
   0.00519543  0.78282896  0.21093109
   0.68549240  0.66659669  0.05107932
  -0.04423866  0.21820704  0.43621405
   0.33333300  0.11795629  0.37500012
   0.00000000  0.00000000  0.45833338
   0.34687147  0.55080898  0.38176936
   0.69635553  0.44821227  0.30651089
   0.38706153  0.33836655  0.40186439
   0.66381936  0.88421821  0.29024281
   0.00560727  0.78401636  0.46113701
   0.67201551  0.66409869  0.29434088
Direct configuration=     7
   0.66666700  0.06339322  0.04166662
   0.69292654  0.27537039  0.05479639
  -0.01699698  0.40306904  0.19983489
  -0.04289791  0.60259549  0.18688442
   0.34172795  0.72289747  0.12919760
   0.33747638  0.92888751  0.12707181
   0.71752149  0.06182315  0.31709387
   0.66666700  0.26994078  0.29166662
   0.00000000  0.39672622  0.45833338
  -0.03227980  0.60479928  0.44219347
   0.33136921  0.73804270  0.37401823
   0.32510312  0.94623905  0.37088519
  -0.00999675  0.21730801  0.20333500
   0.30424593  0.11152522  0.11045659
  -0.00399828  0.00208693  0.20633424
   0.33333300  0.54870971  0.12500012
   0.68402517  0.45351875  0.05034571
   0.28445812  0.33170880  0.10056268
   0.65940745  0.88243380  0.03803685
   0.00233125  0.78276086  0.20949900
   0.68298971  0.66641699  0.04982798
  -0.04947751  0.21876947  0.43359462
   0.33333300  0.11795629  0.37500012
   0.00000000  0.00000000  0.45833338
   0.34607273  0.55065169  0.38136999
   0.69735052  0.44849683  0.30700838
   0.39699988  0.33875064  0.40683357
   0.66729396  0.88443770  0.29198011
   0.00757829  0.78440793  0.46212252
   0.67164344  0.66385042  0.29415484
Direct configuration=     8
   0.66666700  0.06339322  0.04166662
   0.68946354  0.27494995  0.05306489
  -0.01910090  0.40477074  0.19878293
  -0.04100344  0.60240607  0.18783165
   0.34548924  0.72242688  0.13107824
   0.33418192  0.92792347  0.12542458
   0.71763478  0.06173117  0.31715052
   0.66666700  0.26994078  0.29166662
   0.00000000  0.39672622  0.45833338
  -0.03494481  0.60468245  0.44086097
   0.33644723  0.73909201  0.37655724
   0.31741472  0.94682718  0.36704099
  -0.01227036  0.21885467  0.20219820
   0.30485098  0.11200474  0.11075912
  -0.00270928  0.00195786  0.20697874
   0.33333300  0.54870971  0.12500012
   0.68858471  0.45390387  0.05262548
   0.27438218  0.33390737  0.09552471
   0.65902532  0.88240328  0.03784578
  -0.00162424  0.78283464  0.20752125
   0.67766209  0.66630211  0.04716417
  -0.04988214  0.21915307  0.43339231
   0.33333300  0.11795629  0.37500012
   0.00000000  0.00000000  0.45833338
   0.34563063  0.55119406  0.38114894
   0.69445922  0.44981400  0.30556273
   0.41415474  0.33872213  0.41541099
   0.67248099  0.88477757  0.29457362
   0.00845002  0.78452878  0.46255838
   0.67024699  0.66384617  0.29345662
Direct configuration=     9
   0.66666700  0.06339322  0.04166662
   0.68763845  0.27472837  0.05215235
  -0.02020972  0.40566757  0.19822852
  -0.04000501  0.60230624  0.18833087
   0.34747153  0.72217886  0.13206939
   0.33244565  0.92741539  0.12455645
   0.71769450  0.06168268  0.31718037
   0.66666700  0.26994078  0.29166662
   0.00000000  0.39672622  0.45833338
  -0.03634933  0.60462087  0.44015871
   0.33912348  0.73964502  0.37789536
   0.31336274  0.94713714  0.36501500
  -0.01346861  0.21966981  0.20159907
   0.30516986  0.11225745  0.11091855
  -0.00202994  0.00188983  0.20731841
   0.33333300  0.54870971  0.12500012
   0.69098771  0.45410685  0.05382698
   0.26907190  0.33506607  0.09286957
   0.65882392  0.88238719  0.03774509
  -0.00370888  0.78287353  0.20647893
   0.67485430  0.66624156  0.04576028
  -0.05009539  0.21935524  0.43328568
   0.33333300  0.11795629  0.37500012
   0.00000000  0.00000000  0.45833338
   0.34539763  0.55147990  0.38103244
   0.69293543  0.45050818  0.30480084
   0.42319578  0.33870711  0.41993152
   0.67521469  0.88495668  0.29594047
   0.00890944  0.78459247  0.46278810
   0.66951102  0.66384393  0.29308864
Direct configuration=    10
   0.66666700  0.06339322  0.04166662
   0.68520857  0.27578048  0.05093741
  -0.02004348  0.40600203  0.19831164
  -0.04051476  0.60287074  0.18807600
   0.34691785  0.72118071  0.13179255
   0.33305448  0.92686171  0.12486086
   0.71512130  0.06227244  0.31589377
   0.66666700  0.26994078  0.29166662
   0.00000000  0.39672622  0.45833338
  -0.03557317  0.60433733  0.44054679
   0.33806387  0.74015668  0.37736556
   0.31218662  0.94724854  0.36442693
  -0.01706450  0.22052712  0.19980113
   0.30623842  0.11257631  0.11145284
  -0.00501013  0.00190269  0.20582831
   0.33333300  0.54870971  0.12500012
   0.69196939  0.45450883  0.05431782
   0.26108565  0.33551151  0.08887645
   0.65833641  0.88213729  0.03750133
  -0.00233902  0.78295486  0.20716386
   0.67452252  0.66625298  0.04559438
  -0.04436322  0.21934330  0.43615177
   0.33333300  0.11795629  0.37500012
   0.00000000  0.00000000  0.45833338
   0.34419796  0.55165687  0.38043260
   0.69270900  0.45131691  0.30468763
   0.43049847  0.33749480  0.42358286
   0.67430742  0.88487465  0.29548683
   0.01069749  0.78504390  0.46368212
   0.66900553  0.66437396  0.29283589
Direct configuration=    11
   0.66666700  0.06339322  0.04166662
   0.68246978  0.27696635  0.04956801
  -0.01985610  0.40637900  0.19840533
  -0.04108931  0.60350699  0.18778872
   0.34629378  0.72005566  0.13148052
   0.33374071  0.92623763  0.12520398
   0.71222095  0.06293717  0.31444360
   0.66666700  0.26994078  0.29166662
   0.00000000  0.39672622  0.45833338
  -0.03469833  0.60401773  0.44098421
   0.33686955  0.74073339  0.37676840
   0.31086097  0.94737410  0.36376411
  -0.02111755  0.22149342  0.19777460
   0.30744284  0.11293571  0.11205504
  -0.00836921  0.00191719  0.20414877
   0.33333300  0.54870971  0.12500012
   0.69307589  0.45496192  0.05487107
   0.25208407  0.33601358  0.08437566
   0.65778693  0.88185563  0.03722659
  -0.00079500  0.78304652  0.20793587
   0.67414856  0.66626584  0.04540740
  -0.03790228  0.21932984  0.43938223
   0.33333300  0.11795629  0.37500012
   0.00000000  0.00000000  0.45833338
   0.34284577  0.55185633  0.37975651
   0.69245379  0.45222846  0.30456002
   0.43872958  0.33612836  0.42769842
   0.67328479  0.88478218  0.29497552
   0.01271286  0.78555273  0.46468981
   0.66843576  0.66497137  0.29255101
Direct configuration=    12
   0.66666700  0.06339322  0.04166662
   0.67474559  0.27804836  0.04570592
  -0.01734475  0.40655296  0.19966100
  -0.04180396  0.60380921  0.18743139
   0.34546065  0.71979182  0.13106395
   0.33378309  0.92604844  0.12522517
   0.70950025  0.06312078  0.31308325
   0.66666700  0.26994078  0.29166662
   0.00000000  0.39672622  0.45833338
  -0.03348185  0.60383488  0.44159245
   0.33656897  0.74146880  0.37661811
   0.31187227  0.94773342  0.36426976
  -0.02337798  0.22201301  0.19664438
   0.30764982  0.11291597  0.11215854
  -0.01338049  0.00207701  0.20164313
   0.33333300  0.54870971  0.12500012
   0.69180258  0.45553664  0.05423442
   0.24515109  0.33718781  0.08090917
   0.65707802  0.88120986  0.03687214
   0.00033678  0.78292242  0.20850176
   0.67283024  0.66600606  0.04474825
  -0.03911494  0.22097967  0.43877590
   0.33333300  0.11795629  0.37500012
   0.00000000  0.00000000  0.45833338
   0.34043411  0.55195503  0.37855068
   0.69471427  0.45220329  0.30569026
   0.44414657  0.33472961  0.43040691
   0.67218346  0.88407826  0.29442485
   0.01367968  0.78607180  0.46517321
   0.66998977  0.66543995  0.29332801
Direct configuration=    13
   0.66666700  0.06339322  0.04166662
   0.67083315  0.27859642  0.04374970
  -0.01607270  0.40664108  0.20029702
  -0.04216595  0.60396229  0.18725040
   0.34503866  0.71965818  0.13085295
   0.33380455  0.92595261  0.12523590
   0.70812216  0.06321379  0.31239421
   0.66666700  0.26994078  0.29166662
   0.00000000  0.39672622  0.45833338
  -0.03286568  0.60374226  0.44190053
   0.33641672  0.74184131  0.37654198
   0.31238451  0.94791542  0.36452588
  -0.02452293  0.22227619  0.19607191
   0.30775467  0.11290597  0.11221096
  -0.01591879  0.00215796  0.20037398
   0.33333300  0.54870971  0.12500012
   0.69115763  0.45582774  0.05391194
   0.24163941  0.33778258  0.07915333
   0.65671895  0.88088277  0.03669260
   0.00091005  0.78285957  0.20878840
   0.67216249  0.66587447  0.04441437
  -0.03972918  0.22181534  0.43846878
   0.33333300  0.11795629  0.37500012
   0.00000000  0.00000000  0.45833338
   0.33921257  0.55200502  0.37793991
   0.69585924  0.45219054  0.30626275
   0.44689037  0.33402111  0.43177881
   0.67162561  0.88372171  0.29414593
   0.01416939  0.78633471  0.46541807
   0.67077691  0.66567730  0.29372158
Direct configuration=    14
   0.66666700  0.06339322  0.04166662
   0.66513645  0.27914436  0.04090135
  -0.01884773  0.40766057  0.19890951
  -0.04230639  0.60393558  0.18718018
   0.34428699  0.72003419  0.13047712
   0.33228198  0.92542216  0.12447461
   0.70617181  0.06310862  0.31141903
   0.66666700  0.26994078  0.29166662
   0.00000000  0.39672622  0.45833338
  -0.03297469  0.60350971  0.44184603
   0.33923173  0.74235467  0.37794949
   0.31195227  0.94812913  0.36430976
  -0.03148046  0.22318873  0.19259314
   0.30733446  0.11285306  0.11200085
  -0.01988211  0.00221189  0.19839232
   0.33333300  0.54870971  0.12500012
   0.69542259  0.45540779  0.05604442
   0.23481256  0.33950395  0.07573990
   0.65730328  0.88025129  0.03698476
  -0.00079240  0.78286396  0.20793718
   0.67011545  0.66556565  0.04339085
  -0.03986284  0.22401087  0.43840196
   0.33333300  0.11795629  0.37500012
   0.00000000  0.00000000  0.45833338
   0.33666287  0.55226726  0.37666506
   0.69807210  0.45160349  0.30736917
   0.45043320  0.33336224  0.43355023
   0.67162973  0.88318273  0.29414799
   0.01399687  0.78709397  0.46533181
   0.67350128  0.66591508  0.29508376
Direct configuration=    15
   0.66666700  0.06339322  0.04166662
   0.66630053  0.27903239  0.04148339
  -0.01828067  0.40745225  0.19919304
  -0.04227769  0.60394104  0.18719453
   0.34444059  0.71995736  0.13055392
   0.33259311  0.92553055  0.12463018
   0.70657035  0.06313011  0.31161830
   0.66666700  0.26994078  0.29166662
   0.00000000  0.39672622  0.45833338
  -0.03295242  0.60355723  0.44185717
   0.33865650  0.74224977  0.37766187
   0.31204060  0.94808546  0.36435392
  -0.03005873  0.22300226  0.19330401
   0.30742032  0.11286387  0.11204379
  -0.01907223  0.00220087  0.19879726
   0.33333300  0.54870971  0.12500012
   0.69455107  0.45549360  0.05560866
   0.23620758  0.33915220  0.07643742
   0.65718387  0.88038033  0.03692506
  -0.00044451  0.78286307  0.20811112
   0.67053375  0.66562875  0.04360000
  -0.03983553  0.22356223  0.43841561
   0.33333300  0.11795629  0.37500012
   0.00000000  0.00000000  0.45833338
   0.33718388  0.55221367  0.37692557
   0.69761991  0.45172345  0.30714308
   0.44970925  0.33349687  0.43318825
   0.67162889  0.88329287  0.29414757
   0.01403212  0.78693882  0.46534944
   0.67294457  0.66586649  0.29480541
Direct configuration=    16
   0.66666700  0.06339322  0.04166662
   0.66437926  0.27967588  0.04052276
  -0.01697289  0.40717388  0.19984693
  -0.04212024  0.60383694  0.18727325
   0.34414588  0.72031798  0.13040656
   0.33137209  0.92489496  0.12401967
   0.70629001  0.06303361  0.31147813
   0.66666700  0.26994078  0.29166662
   0.00000000  0.39672622  0.45833338
  -0.03415249  0.60348404  0.44125713
   0.34116697  0.74240784  0.37891711
   0.30987330  0.94804082  0.36327027
  -0.03796577  0.22378227  0.18935049
   0.30688002  0.11294376  0.11177363
  -0.02028161  0.00204124  0.19819257
   0.33333300  0.54870971  0.12500012
   0.69374387  0.45573646  0.05520506
   0.23076420  0.34021591  0.07371572
   0.65813230  0.87981914  0.03739928
  -0.00252894  0.78288441  0.20706890
   0.66963487  0.66556892  0.04315056
  -0.03535488  0.22492238  0.44065593
   0.33333300  0.11795629  0.37500012
   0.00000000  0.00000000  0.45833338
   0.33530700  0.55233245  0.37598712
   0.69887514  0.45129002  0.30777070
   0.45047665  0.33378181  0.43357195
   0.67233360  0.88329628  0.29449993
   0.01343548  0.78781785  0.46505111
   0.67470983  0.66596670  0.29568804
Direct configuration=    17
   0.66666700  0.06339322  0.04166662
   0.66370747  0.27990089  0.04018686
  -0.01651562  0.40707654  0.20007557
  -0.04206519  0.60380054  0.18730078
   0.34404283  0.72044408  0.13035504
   0.33094515  0.92467272  0.12380620
   0.70619199  0.06299987  0.31142912
   0.66666700  0.26994078  0.29166662
   0.00000000  0.39672622  0.45833338
  -0.03457210  0.60345845  0.44104732
   0.34204478  0.74246311  0.37935602
   0.30911548  0.94802521  0.36289136
  -0.04073053  0.22405500  0.18796811
   0.30669109  0.11297169  0.11167917
  -0.02070448  0.00198543  0.19798113
   0.33333300  0.54870971  0.12500012
   0.69346162  0.45582137  0.05506394
   0.22886087  0.34058784  0.07276406
   0.65846393  0.87962291  0.03756509
  -0.00325778  0.78289188  0.20670448
   0.66932057  0.66554800  0.04299341
  -0.03378818  0.22539797  0.44143928
   0.33333300  0.11795629  0.37500012
   0.00000000  0.00000000  0.45833338
   0.33465073  0.55237398  0.37565899
   0.69931404  0.45113847  0.30799015
   0.45074498  0.33388144  0.43370611
   0.67258001  0.88329747  0.29462313
   0.01322686  0.78812521  0.46494680
   0.67532707  0.66600173  0.29599666
Direct configuration=    18
   0.66666700  0.06339322  0.04166662
   0.65938076  0.28137511  0.03802350
  -0.01737357  0.40656435  0.19964659
  -0.04256380  0.60397098  0.18705147
   0.34392356  0.72039426  0.13029540
   0.33097185  0.92426397  0.12381955
   0.70726215  0.06303043  0.31196420
   0.66666700  0.26994078  0.29166662
   0.00000000  0.39672622  0.45833338
  -0.03594929  0.60355447  0.44035873
   0.34212568  0.74285362  0.37939646
   0.30669396  0.94803318  0.36168060
  -0.04483451  0.22436638  0.18591612
   0.30599893  0.11311938  0.11133309
  -0.02088961  0.00167196  0.19788857
   0.33333300  0.54870971  0.12500012
   0.69438683  0.45570761  0.05552654
   0.22418564  0.34164977  0.07042645
   0.65861277  0.87863023  0.03763951
  -0.00290996  0.78271265  0.20687840
   0.67020363  0.66575190  0.04343494
  -0.02956754  0.22689514  0.44354960
   0.33333300  0.11795629  0.37500012
   0.00000000  0.00000000  0.45833338
   0.33279324  0.55220642  0.37473025
   0.69786741  0.45106413  0.30726683
   0.44930025  0.33439714  0.43298375
   0.67335812  0.88346313  0.29501218
   0.01216213  0.78915009  0.46441444
   0.67562559  0.66621277  0.29614592
Direct configuration=    19
   0.66666700  0.06339322  0.04166662
   0.65526686  0.28277682  0.03596656
  -0.01818933  0.40607736  0.19923871
  -0.04303788  0.60413304  0.18681443
   0.34381016  0.72034689  0.13023870
   0.33099723  0.92387533  0.12383224
   0.70827967  0.06305948  0.31247296
   0.66666700  0.26994078  0.29166662
   0.00000000  0.39672622  0.45833338
  -0.03725873  0.60364577  0.43970401
   0.34220259  0.74322491  0.37943492
   0.30439155  0.94804076  0.36052940
  -0.04873662  0.22466243  0.18396506
   0.30534081  0.11325979  0.11100403
  -0.02106564  0.00137392  0.19780055
   0.33333300  0.54870971  0.12500012
   0.69526653  0.45559944  0.05596639
   0.21974039  0.34265946  0.06820382
   0.65875429  0.87768639  0.03771027
  -0.00257924  0.78254224  0.20704376
   0.67104325  0.66594577  0.04385475
  -0.02555452  0.22831866  0.44555612
   0.33333300  0.11795629  0.37500012
   0.00000000  0.00000000  0.45833338
   0.33102713  0.55204709  0.37384719
   0.69649193  0.45099344  0.30657909
   0.44792658  0.33488748  0.43229691
   0.67409795  0.88362064  0.29538210
   0.01114977  0.79012455  0.46390826
   0.67590942  0.66641343  0.29628784
Direct configuration=    20
   0.66666700  0.06339322  0.04166662
   0.65130921  0.28368153  0.03398773
  -0.01770203  0.40550614  0.19948236
  -0.04347655  0.60417293  0.18659510
   0.34364716  0.72013991  0.13015721
   0.32923704  0.92326719  0.12295214
   0.70998733  0.06315875  0.31332679
   0.66666700  0.26994078  0.29166662
   0.00000000  0.39672622  0.45833338
  -0.03943419  0.60335592  0.43861628
   0.34254137  0.74415716  0.37960431
   0.30475093  0.94841195  0.36070909
  -0.05102381  0.22558833  0.18282147
   0.30417175  0.11327882  0.11041950
  -0.02217523  0.00112261  0.19724576
   0.33333300  0.54870971  0.12500012
   0.69519098  0.45529513  0.05592862
   0.21615870  0.34463845  0.06641297
   0.66071122  0.87666329  0.03868873
  -0.00041605  0.78249892  0.20812535
   0.67150727  0.66631926  0.04408676
  -0.02464863  0.23042406  0.44600906
   0.33333300  0.11795629  0.37500012
   0.00000000  0.00000000  0.45833338
   0.32987633  0.55206344  0.37327179
   0.69278286  0.45076060  0.30472456
   0.44478083  0.33498867  0.43072404
   0.67475045  0.88336427  0.29570835
   0.00811242  0.79107335  0.46238959
   0.67493245  0.66675601  0.29579935
