  30  30   1   0
  0.6327519E+02  0.7261769E-09  0.3145524E-08  0.1677034E-08  0.5000000E-15
  1.000000000000000E-004
  CAR 
 Tetradymite Slab                        
     10.88418703    -25.86329309  301     -0.86257603      1.00000000
    -25.863  0.0000E+00  0.0000E+00
    -25.741  0.0000E+00  0.0000E+00
    -25.618  0.0000E+00  0.0000E+00
    -25.496 -0.2543E-28 -0.3115E-29
    -25.373 -0.3660E-24 -0.4484E-25
    -25.251 -0.2483E-20 -0.3042E-21
    -25.128 -0.7940E-17 -0.9729E-18
    -25.006 -0.1159E-13 -0.1421E-14
    -24.883 -0.8153E-11 -0.1000E-11
    -24.761 -0.2682E-08 -0.3296E-09
    -24.638 -0.4109E-06 -0.5067E-07
    -24.516 -0.2906E-04 -0.3610E-05
    -24.393 -0.9313E-03 -0.1177E-03
    -24.271 -0.1300E-01 -0.1710E-02
    -24.148 -0.7061E-01 -0.1036E-01
    -24.026 -0.8319E-01 -0.2055E-01
    -23.903  0.2875E+00  0.1467E-01
    -23.781  0.1236E+01  0.1660E+00
    -23.658  0.6070E+01  0.9096E+00
    -23.536  0.1677E+02  0.2964E+01
    -23.413  0.1850E+02  0.5230E+01
    -23.291  0.7174E+01  0.6109E+01
    -23.168 -0.1258E+00  0.6093E+01
    -23.046 -0.6229E+00  0.6017E+01
    -22.923 -0.1273E+00  0.6001E+01
    -22.801 -0.1023E-01  0.6000E+01
    -22.679 -0.3767E-03  0.6000E+01
    -22.556 -0.6612E-05  0.6000E+01
    -22.434 -0.5582E-07  0.6000E+01
    -22.311 -0.2265E-09  0.6000E+01
    -22.189 -0.4394E-12  0.6000E+01
    -22.066 -0.3625E-15  0.6000E+01
    -21.944  0.0000E+00  0.6000E+01
    -21.821  0.0000E+00  0.6000E+01
    -21.699  0.0000E+00  0.6000E+01
    -21.576  0.0000E+00  0.6000E+01
    -21.454  0.0000E+00  0.6000E+01
    -21.331  0.0000E+00  0.6000E+01
    -21.209  0.0000E+00  0.6000E+01
    -21.086  0.0000E+00  0.6000E+01
    -20.964  0.0000E+00  0.6000E+01
    -20.841  0.0000E+00  0.6000E+01
    -20.719  0.0000E+00  0.6000E+01
    -20.596  0.0000E+00  0.6000E+01
    -20.474  0.0000E+00  0.6000E+01
    -20.351  0.0000E+00  0.6000E+01
    -20.229  0.0000E+00  0.6000E+01
    -20.106  0.0000E+00  0.6000E+01
    -19.984  0.0000E+00  0.6000E+01
    -19.861  0.0000E+00  0.6000E+01
    -19.739  0.0000E+00  0.6000E+01
    -19.616  0.0000E+00  0.6000E+01
    -19.494  0.0000E+00  0.6000E+01
    -19.371  0.0000E+00  0.6000E+01
    -19.249  0.0000E+00  0.6000E+01
    -19.126  0.0000E+00  0.6000E+01
    -19.004  0.0000E+00  0.6000E+01
    -18.881  0.0000E+00  0.6000E+01
    -18.759  0.0000E+00  0.6000E+01
    -18.636  0.0000E+00  0.6000E+01
    -18.514  0.0000E+00  0.6000E+01
    -18.391  0.0000E+00  0.6000E+01
    -18.269  0.0000E+00  0.6000E+01
    -18.146  0.0000E+00  0.6000E+01
    -18.024  0.0000E+00  0.6000E+01
    -17.901  0.0000E+00  0.6000E+01
    -17.779  0.0000E+00  0.6000E+01
    -17.656  0.0000E+00  0.6000E+01
    -17.534  0.0000E+00  0.6000E+01
    -17.411  0.0000E+00  0.6000E+01
    -17.289  0.0000E+00  0.6000E+01
    -17.166  0.0000E+00  0.6000E+01
    -17.044  0.0000E+00  0.6000E+01
    -16.921  0.0000E+00  0.6000E+01
    -16.799  0.0000E+00  0.6000E+01
    -16.676  0.0000E+00  0.6000E+01
    -16.554  0.0000E+00  0.6000E+01
    -16.431  0.0000E+00  0.6000E+01
    -16.309  0.0000E+00  0.6000E+01
    -16.186  0.0000E+00  0.6000E+01
    -16.064  0.0000E+00  0.6000E+01
    -15.941 -0.2789E-31  0.6000E+01
    -15.819 -0.6036E-27  0.6000E+01
    -15.696 -0.5774E-23  0.6000E+01
    -15.574 -0.2608E-19  0.6000E+01
    -15.452 -0.5564E-16  0.6000E+01
    -15.329 -0.5428E-13  0.6000E+01
    -15.207 -0.2569E-10  0.6000E+01
    -15.084 -0.5739E-08  0.6000E+01
    -14.962 -0.6042E-06  0.6000E+01
    -14.839 -0.2980E-04  0.6000E+01
    -14.717 -0.6780E-03  0.6000E+01
    -14.594 -0.6764E-02  0.5999E+01
    -14.472 -0.2396E-01  0.5996E+01
    -14.349  0.2201E-01  0.5999E+01
    -14.227  0.3051E+00  0.6036E+01
    -14.104  0.6603E+00  0.6117E+01
    -13.982  0.6841E+00  0.6201E+01
    -13.859  0.4876E+00  0.6261E+01
    -13.737  0.3467E+00  0.6303E+01
    -13.614  0.5225E+00  0.6367E+01
    -13.492  0.8920E+00  0.6476E+01
    -13.369  0.9543E+00  0.6593E+01
    -13.247  0.7852E+00  0.6689E+01
    -13.124  0.7328E+00  0.6779E+01
    -13.002  0.7321E+00  0.6869E+01
    -12.879  0.6011E+00  0.6942E+01
    -12.757  0.5215E+00  0.7006E+01
    -12.634  0.8573E+00  0.7111E+01
    -12.512  0.1414E+01  0.7285E+01
    -12.389  0.1736E+01  0.7497E+01
    -12.267  0.1494E+01  0.7680E+01
    -12.144  0.7685E+00  0.7774E+01
    -12.022  0.2143E+00  0.7801E+01
    -11.899  0.1990E-01  0.7803E+01
    -11.777 -0.1567E-01  0.7801E+01
    -11.654 -0.8106E-02  0.7800E+01
    -11.532 -0.5680E-02  0.7799E+01
    -11.409 -0.1338E-01  0.7798E+01
    -11.287  0.1639E-01  0.7800E+01
    -11.164  0.1714E+00  0.7821E+01
    -11.042  0.3856E+00  0.7868E+01
    -10.919  0.5140E+00  0.7931E+01
    -10.797  0.6548E+00  0.8011E+01
    -10.674  0.7308E+00  0.8101E+01
    -10.552  0.6084E+00  0.8175E+01
    -10.429  0.5680E+00  0.8245E+01
    -10.307  0.5298E+00  0.8310E+01
    -10.184  0.5230E+00  0.8374E+01
    -10.062  0.7832E+00  0.8470E+01
     -9.939  0.9137E+00  0.8582E+01
     -9.817  0.7999E+00  0.8680E+01
     -9.694  0.5915E+00  0.8752E+01
     -9.572  0.3414E+00  0.8794E+01
     -9.449  0.3394E+00  0.8835E+01
     -9.327  0.5213E+00  0.8899E+01
     -9.204  0.5414E+00  0.8966E+01
     -9.082  0.2792E+00  0.9000E+01
     -8.959  0.2966E-01  0.9003E+01
     -8.837 -0.2081E-01  0.9001E+01
     -8.714 -0.6417E-02  0.9000E+01
     -8.592 -0.6614E-03  0.9000E+01
     -8.469 -0.2940E-04  0.9000E+01
     -8.347 -0.5993E-06  0.9000E+01
     -8.225 -0.5718E-08  0.9000E+01
     -8.102 -0.2571E-10  0.9000E+01
     -7.980 -0.5456E-13  0.9000E+01
     -7.857 -0.5179E-16  0.9000E+01
     -7.735  0.0000E+00  0.9000E+01
     -7.612  0.0000E+00  0.9000E+01
     -7.490  0.0000E+00  0.9000E+01
     -7.367  0.0000E+00  0.9000E+01
     -7.245  0.0000E+00  0.9000E+01
     -7.122  0.0000E+00  0.9000E+01
     -7.000  0.0000E+00  0.9000E+01
     -6.877  0.0000E+00  0.9000E+01
     -6.755  0.0000E+00  0.9000E+01
     -6.632  0.0000E+00  0.9000E+01
     -6.510 -0.2212E-31  0.9000E+01
     -6.387 -0.4759E-27  0.9000E+01
     -6.265 -0.4663E-23  0.9000E+01
     -6.142 -0.2158E-19  0.9000E+01
     -6.020 -0.4716E-16  0.9000E+01
     -5.897 -0.4713E-13  0.9000E+01
     -5.775 -0.2285E-10  0.9000E+01
     -5.652 -0.5230E-08  0.9000E+01
     -5.530 -0.5634E-06  0.9000E+01
     -5.407 -0.2837E-04  0.9000E+01
     -5.285 -0.6540E-03  0.9000E+01
     -5.162 -0.6493E-02  0.8999E+01
     -5.040 -0.2164E-01  0.8996E+01
     -4.917  0.2869E-01  0.9000E+01
     -4.795  0.2823E+00  0.9035E+01
     -4.672  0.5391E+00  0.9101E+01
     -4.550  0.5287E+00  0.9165E+01
     -4.427  0.5216E+00  0.9229E+01
     -4.305  0.9160E+00  0.9341E+01
     -4.182  0.1478E+01  0.9522E+01
     -4.060  0.1480E+01  0.9704E+01
     -3.937  0.1132E+01  0.9842E+01
     -3.815  0.9645E+00  0.9961E+01
     -3.692  0.9724E+00  0.1008E+02
     -3.570  0.1206E+01  0.1023E+02
     -3.447  0.1437E+01  0.1040E+02
     -3.325  0.1450E+01  0.1058E+02
     -3.202  0.1248E+01  0.1073E+02
     -3.080  0.1438E+01  0.1091E+02
     -2.957  0.2118E+01  0.1117E+02
     -2.835  0.2427E+01  0.1147E+02
     -2.712  0.1983E+01  0.1171E+02
     -2.590  0.1152E+01  0.1185E+02
     -2.467  0.5680E+00  0.1192E+02
     -2.345  0.6817E+00  0.1200E+02
     -2.222  0.1282E+01  0.1216E+02
     -2.100  0.1499E+01  0.1234E+02
     -1.977  0.1165E+01  0.1249E+02
     -1.855  0.1018E+01  0.1261E+02
     -1.732  0.1446E+01  0.1279E+02
     -1.610  0.1783E+01  0.1301E+02
     -1.487  0.1578E+01  0.1320E+02
     -1.365  0.1815E+01  0.1342E+02
     -1.242  0.2382E+01  0.1372E+02
     -1.120  0.2453E+01  0.1402E+02
     -0.997  0.2039E+01  0.1427E+02
     -0.875  0.1054E+01  0.1439E+02
     -0.753  0.1503E+00  0.1441E+02
     -0.630 -0.7390E-01  0.1440E+02
     -0.508 -0.2755E-01  0.1440E+02
     -0.385 -0.3226E-02  0.1440E+02
     -0.263 -0.1653E-03  0.1440E+02
     -0.140 -0.1725E-03  0.1440E+02
     -0.018 -0.2551E-02  0.1440E+02
      0.105 -0.1442E-01  0.1440E+02
      0.227 -0.7786E-02  0.1440E+02
      0.350  0.1457E+00  0.1441E+02
      0.472  0.3890E+00  0.1446E+02
      0.595  0.4690E+00  0.1452E+02
      0.717  0.4660E+00  0.1458E+02
      0.840  0.4821E+00  0.1464E+02
      0.962  0.7980E+00  0.1473E+02
      1.085  0.1509E+01  0.1492E+02
      1.207  0.1992E+01  0.1516E+02
      1.330  0.1727E+01  0.1537E+02
      1.452  0.9859E+00  0.1550E+02
      1.575  0.6676E+00  0.1558E+02
      1.697  0.1082E+01  0.1571E+02
      1.820  0.1600E+01  0.1591E+02
      1.942  0.1777E+01  0.1612E+02
      2.065  0.1592E+01  0.1632E+02
      2.187  0.1301E+01  0.1648E+02
      2.310  0.1126E+01  0.1662E+02
      2.432  0.9766E+00  0.1673E+02
      2.555  0.1076E+01  0.1687E+02
      2.677  0.1404E+01  0.1704E+02
      2.800  0.1743E+01  0.1725E+02
      2.922  0.1842E+01  0.1748E+02
      3.045  0.1316E+01  0.1764E+02
      3.167  0.5916E+00  0.1771E+02
      3.290  0.2538E+00  0.1774E+02
      3.412  0.2668E+00  0.1778E+02
      3.535  0.3298E+00  0.1782E+02
      3.657  0.4281E+00  0.1787E+02
      3.780  0.6204E+00  0.1794E+02
      3.902  0.7428E+00  0.1803E+02
      4.025  0.7575E+00  0.1813E+02
      4.147  0.6427E+00  0.1821E+02
      4.270  0.5320E+00  0.1827E+02
      4.392  0.5572E+00  0.1834E+02
      4.515  0.6683E+00  0.1842E+02
      4.637  0.7427E+00  0.1851E+02
      4.760  0.7950E+00  0.1861E+02
      4.882  0.1064E+01  0.1874E+02
      5.005  0.1383E+01  0.1891E+02
      5.127  0.1447E+01  0.1909E+02
      5.250  0.1397E+01  0.1926E+02
      5.372  0.1401E+01  0.1943E+02
      5.495  0.1502E+01  0.1961E+02
      5.617  0.1587E+01  0.1981E+02
      5.740  0.1586E+01  0.2000E+02
      5.862  0.1491E+01  0.2019E+02
      5.985  0.1311E+01  0.2035E+02
      6.107  0.1270E+01  0.2050E+02
      6.230  0.1513E+01  0.2069E+02
      6.352  0.1816E+01  0.2091E+02
      6.474  0.1925E+01  0.2114E+02
      6.597  0.1970E+01  0.2139E+02
      6.719  0.2144E+01  0.2165E+02
      6.842  0.2123E+01  0.2191E+02
      6.964  0.1844E+01  0.2213E+02
      7.087  0.1751E+01  0.2235E+02
      7.209  0.1854E+01  0.2258E+02
      7.332  0.1914E+01  0.2281E+02
      7.454  0.2003E+01  0.2306E+02
      7.577  0.2082E+01  0.2331E+02
      7.699  0.2022E+01  0.2356E+02
      7.822  0.1935E+01  0.2380E+02
      7.944  0.1972E+01  0.2404E+02
      8.067  0.2115E+01  0.2430E+02
      8.189  0.2217E+01  0.2457E+02
      8.312  0.2176E+01  0.2483E+02
      8.434  0.2140E+01  0.2510E+02
      8.557  0.2006E+01  0.2534E+02
      8.679  0.1400E+01  0.2551E+02
      8.802  0.5944E+00  0.2559E+02
      8.924  0.1298E+00  0.2560E+02
      9.047 -0.2982E-02  0.2560E+02
      9.169 -0.1475E-01  0.2560E+02
      9.292 -0.5059E-02  0.2560E+02
      9.414 -0.7115E-03  0.2560E+02
      9.537 -0.4498E-04  0.2560E+02
      9.659 -0.1313E-05  0.2560E+02
      9.782 -0.1791E-07  0.2560E+02
      9.904 -0.1149E-09  0.2560E+02
     10.027 -0.3470E-12  0.2560E+02
     10.149 -0.4920E-15  0.2560E+02
     10.272  0.0000E+00  0.2560E+02
     10.394  0.0000E+00  0.2560E+02
     10.517  0.0000E+00  0.2560E+02
     10.639  0.0000E+00  0.2560E+02
     10.762  0.0000E+00  0.2560E+02
     10.884  0.0000E+00  0.2560E+02
     10.88418703    -25.86329309  301     -0.86257603      1.00000000
    -25.863  0.0000E+00  0.0000E+00  0.0000E+00  0.0000E+00  0.0000E+00  0.0000E+00  0.0000E+00  0.0000E+00  0.0000E+00
    -25.741  0.0000E+00  0.0000E+00  0.0000E+00  0.0000E+00  0.0000E+00  0.0000E+00  0.0000E+00  0.0000E+00  0.0000E+00
    -25.618  0.0000E+00  0.0000E+00  0.0000E+00  0.0000E+00  0.0000E+00  0.0000E+00  0.0000E+00  0.0000E+00  0.0000E+00
    -25.496 -0.2277E-32 -0.3817E-33 -0.6607E-33 -0.2336E-33 -0.1316E-27 -0.1928E-27 -0.1781E-28 -0.7297E-28 -0.8614E-28
    -25.373 -0.3186E-28 -0.5496E-29 -0.9641E-29 -0.3849E-29 -0.1893E-23 -0.2722E-23 -0.2993E-24 -0.1044E-23 -0.1258E-23
    -25.251 -0.2092E-24 -0.3728E-25 -0.6653E-25 -0.2977E-25 -0.1282E-19 -0.1807E-19 -0.2367E-20 -0.7031E-20 -0.8680E-20
    -25.128 -0.6436E-21 -0.1191E-21 -0.2172E-21 -0.1080E-21 -0.4088E-16 -0.5629E-16 -0.8824E-17 -0.2231E-16 -0.2827E-16
    -25.006 -0.8980E-18 -0.1741E-18 -0.3242E-18 -0.1790E-18 -0.5953E-13 -0.7976E-13 -0.1492E-13 -0.3230E-13 -0.4210E-13
    -24.883 -0.5994E-15 -0.1222E-15 -0.2363E-15 -0.1405E-15 -0.4153E-10 -0.5416E-10 -0.1228E-10 -0.2256E-10 -0.3025E-10
    -24.761 -0.1855E-12 -0.4026E-13 -0.8074E-13 -0.5148E-13 -0.1355E-07 -0.1711E-07 -0.4690E-08 -0.7373E-08 -0.1018E-07
    -24.638 -0.2643E-10 -0.6194E-11 -0.1294E-10 -0.8709E-11 -0.2051E-05 -0.2500E-05 -0.8318E-06 -0.1125E-05 -0.1595E-05
    -24.516 -0.1713E-08 -0.4427E-09 -0.9657E-09 -0.6728E-09 -0.1426E-03 -0.1670E-03 -0.6792E-04 -0.7975E-04 -0.1152E-03
    -24.393 -0.4923E-07 -0.1452E-07 -0.3299E-07 -0.2323E-07 -0.4460E-02 -0.4993E-02 -0.2507E-02 -0.2589E-02 -0.3755E-02
    -24.271 -0.5899E-06 -0.2115E-06 -0.4953E-06 -0.3403E-06 -0.5954E-01 -0.6322E-01 -0.4008E-01 -0.3715E-01 -0.5259E-01
    -24.148 -0.2345E-05 -0.1215E-05 -0.2861E-05 -0.1788E-05 -0.2835E+00 -0.2796E+00 -0.2421E+00 -0.2082E+00 -0.2680E+00
    -24.026  0.2384E-05 -0.9779E-06 -0.1858E-05 -0.1640E-07  0.7366E-01  0.1428E+00 -0.1619E+00 -0.1403E+00 -0.5102E-02
    -23.903  0.2990E-04  0.1270E-04  0.3091E-04  0.2108E-04  0.3436E+01  0.3451E+01  0.2662E+01  0.2231E+01  0.3149E+01
    -23.781  0.5301E-04  0.3883E-04  0.8621E-04  0.4592E-04  0.7306E+01  0.7077E+01  0.7152E+01  0.6537E+01  0.7190E+01
    -23.658  0.3968E-04  0.3952E-04  0.7999E-04  0.3264E-04  0.5174E+01  0.5127E+01  0.5938E+01  0.6309E+01  0.5445E+01
    -23.536  0.2720E-04  0.1505E-04  0.2863E-04  0.8841E-05  0.9057E+00  0.1063E+01  0.1292E+01  0.1877E+01  0.1110E+01
    -23.413  0.1999E-04  0.1898E-05  0.4625E-05  0.2155E-05 -0.3091E+00 -0.2637E+00 -0.3223E+00 -0.2431E+00 -0.2939E+00
    -23.291  0.5593E-05 -0.1237E-06  0.1803E-06  0.4153E-06 -0.1224E+00 -0.1313E+00 -0.1492E+00 -0.1886E+00 -0.1362E+00
    -23.168 -0.9896E-06 -0.2855E-06 -0.6269E-06 -0.2825E-06 -0.1430E-01 -0.1757E-01 -0.1842E-01 -0.2762E-01 -0.1734E-01
    -23.046 -0.6490E-06 -0.1123E-06 -0.2554E-06 -0.1194E-06 -0.7354E-03 -0.1038E-02 -0.1073E-02 -0.1654E-02 -0.9743E-03
    -22.923 -0.9206E-07 -0.1609E-07 -0.3470E-07 -0.1464E-07 -0.2051E-04 -0.3478E-04 -0.4423E-04 -0.5121E-04 -0.3093E-04
    -22.801 -0.5213E-08 -0.9728E-09 -0.1951E-08 -0.7265E-09 -0.4118E-06 -0.8778E-06 -0.1537E-05 -0.1068E-05 -0.7491E-06
    -22.679 -0.1310E-09 -0.2655E-10 -0.4868E-10 -0.1594E-10 -0.6316E-08 -0.1610E-07 -0.3312E-07 -0.1611E-07 -0.1362E-07
    -22.556 -0.1518E-11 -0.3373E-12 -0.5557E-12 -0.1601E-12 -0.5809E-10 -0.1674E-09 -0.3561E-09 -0.1438E-09 -0.1430E-09
    -22.434 -0.8239E-14 -0.2025E-14 -0.2947E-14 -0.7513E-15 -0.2716E-12 -0.8703E-12 -0.1807E-11 -0.6499E-12 -0.7584E-12
    -22.311 -0.2117E-16 -0.5782E-17 -0.7322E-17 -0.1668E-17 -0.6144E-15 -0.2192E-14 -0.4290E-14 -0.1414E-14 -0.1967E-14
    -22.189 -0.2685E-19 -0.7757E-20 -0.9393E-20 -0.1543E-20 -0.6136E-18 -0.2555E-17 -0.5311E-17 -0.1320E-17 -0.2320E-17
    -22.066 -0.4987E-25 -0.1971E-24 -0.8677E-25 -0.8683E-25 -0.2746E-23 -0.2450E-23 -0.1911E-23 -0.1226E-23 -0.2034E-23
    -21.944  0.0000E+00  0.0000E+00  0.0000E+00  0.0000E+00  0.0000E+00  0.0000E+00  0.0000E+00  0.0000E+00  0.0000E+00
    -21.821  0.0000E+00  0.0000E+00  0.0000E+00  0.0000E+00  0.0000E+00  0.0000E+00  0.0000E+00  0.0000E+00  0.0000E+00
    -21.699  0.0000E+00  0.0000E+00  0.0000E+00  0.0000E+00  0.0000E+00  0.0000E+00  0.0000E+00  0.0000E+00  0.0000E+00
    -21.576  0.0000E+00  0.0000E+00  0.0000E+00  0.0000E+00  0.0000E+00  0.0000E+00  0.0000E+00  0.0000E+00  0.0000E+00
    -21.454  0.0000E+00  0.0000E+00  0.0000E+00  0.0000E+00  0.0000E+00  0.0000E+00  0.0000E+00  0.0000E+00  0.0000E+00
    -21.331  0.0000E+00  0.0000E+00  0.0000E+00  0.0000E+00  0.0000E+00  0.0000E+00  0.0000E+00  0.0000E+00  0.0000E+00
    -21.209  0.0000E+00  0.0000E+00  0.0000E+00  0.0000E+00  0.0000E+00  0.0000E+00  0.0000E+00  0.0000E+00  0.0000E+00
    -21.086  0.0000E+00  0.0000E+00  0.0000E+00  0.0000E+00  0.0000E+00  0.0000E+00  0.0000E+00  0.0000E+00  0.0000E+00
    -20.964  0.0000E+00  0.0000E+00  0.0000E+00  0.0000E+00  0.0000E+00  0.0000E+00  0.0000E+00  0.0000E+00  0.0000E+00
    -20.841  0.0000E+00  0.0000E+00  0.0000E+00  0.0000E+00  0.0000E+00  0.0000E+00  0.0000E+00  0.0000E+00  0.0000E+00
    -20.719  0.0000E+00  0.0000E+00  0.0000E+00  0.0000E+00  0.0000E+00  0.0000E+00  0.0000E+00  0.0000E+00  0.0000E+00
    -20.596  0.0000E+00  0.0000E+00  0.0000E+00  0.0000E+00  0.0000E+00  0.0000E+00  0.0000E+00  0.0000E+00  0.0000E+00
    -20.474  0.0000E+00  0.0000E+00  0.0000E+00  0.0000E+00  0.0000E+00  0.0000E+00  0.0000E+00  0.0000E+00  0.0000E+00
    -20.351  0.0000E+00  0.0000E+00  0.0000E+00  0.0000E+00  0.0000E+00  0.0000E+00  0.0000E+00  0.0000E+00  0.0000E+00
    -20.229  0.0000E+00  0.0000E+00  0.0000E+00  0.0000E+00  0.0000E+00  0.0000E+00  0.0000E+00  0.0000E+00  0.0000E+00
    -20.106  0.0000E+00  0.0000E+00  0.0000E+00  0.0000E+00  0.0000E+00  0.0000E+00  0.0000E+00  0.0000E+00  0.0000E+00
    -19.984  0.0000E+00  0.0000E+00  0.0000E+00  0.0000E+00  0.0000E+00  0.0000E+00  0.0000E+00  0.0000E+00  0.0000E+00
    -19.861  0.0000E+00  0.0000E+00  0.0000E+00  0.0000E+00  0.0000E+00  0.0000E+00  0.0000E+00  0.0000E+00  0.0000E+00
    -19.739  0.0000E+00  0.0000E+00  0.0000E+00  0.0000E+00  0.0000E+00  0.0000E+00  0.0000E+00  0.0000E+00  0.0000E+00
    -19.616  0.0000E+00  0.0000E+00  0.0000E+00  0.0000E+00  0.0000E+00  0.0000E+00  0.0000E+00  0.0000E+00  0.0000E+00
    -19.494  0.0000E+00  0.0000E+00  0.0000E+00  0.0000E+00  0.0000E+00  0.0000E+00  0.0000E+00  0.0000E+00  0.0000E+00
    -19.371  0.0000E+00  0.0000E+00  0.0000E+00  0.0000E+00  0.0000E+00  0.0000E+00  0.0000E+00  0.0000E+00  0.0000E+00
    -19.249  0.0000E+00  0.0000E+00  0.0000E+00  0.0000E+00  0.0000E+00  0.0000E+00  0.0000E+00  0.0000E+00  0.0000E+00
    -19.126  0.0000E+00  0.0000E+00  0.0000E+00  0.0000E+00  0.0000E+00  0.0000E+00  0.0000E+00  0.0000E+00  0.0000E+00
    -19.004  0.0000E+00  0.0000E+00  0.0000E+00  0.0000E+00  0.0000E+00  0.0000E+00  0.0000E+00  0.0000E+00  0.0000E+00
    -18.881  0.0000E+00  0.0000E+00  0.0000E+00  0.0000E+00  0.0000E+00  0.0000E+00  0.0000E+00  0.0000E+00  0.0000E+00
    -18.759  0.0000E+00  0.0000E+00  0.0000E+00  0.0000E+00  0.0000E+00  0.0000E+00  0.0000E+00  0.0000E+00  0.0000E+00
    -18.636  0.0000E+00  0.0000E+00  0.0000E+00  0.0000E+00  0.0000E+00  0.0000E+00  0.0000E+00  0.0000E+00  0.0000E+00
    -18.514  0.0000E+00  0.0000E+00  0.0000E+00  0.0000E+00  0.0000E+00  0.0000E+00  0.0000E+00  0.0000E+00  0.0000E+00
    -18.391  0.0000E+00  0.0000E+00  0.0000E+00  0.0000E+00  0.0000E+00  0.0000E+00  0.0000E+00  0.0000E+00  0.0000E+00
    -18.269  0.0000E+00  0.0000E+00  0.0000E+00  0.0000E+00  0.0000E+00  0.0000E+00  0.0000E+00  0.0000E+00  0.0000E+00
    -18.146  0.0000E+00  0.0000E+00  0.0000E+00  0.0000E+00  0.0000E+00  0.0000E+00  0.0000E+00  0.0000E+00  0.0000E+00
    -18.024  0.0000E+00  0.0000E+00  0.0000E+00  0.0000E+00  0.0000E+00  0.0000E+00  0.0000E+00  0.0000E+00  0.0000E+00
    -17.901  0.0000E+00  0.0000E+00  0.0000E+00  0.0000E+00  0.0000E+00  0.0000E+00  0.0000E+00  0.0000E+00  0.0000E+00
    -17.779  0.0000E+00  0.0000E+00  0.0000E+00  0.0000E+00  0.0000E+00  0.0000E+00  0.0000E+00  0.0000E+00  0.0000E+00
    -17.656  0.0000E+00  0.0000E+00  0.0000E+00  0.0000E+00  0.0000E+00  0.0000E+00  0.0000E+00  0.0000E+00  0.0000E+00
    -17.534  0.0000E+00  0.0000E+00  0.0000E+00  0.0000E+00  0.0000E+00  0.0000E+00  0.0000E+00  0.0000E+00  0.0000E+00
    -17.411  0.0000E+00  0.0000E+00  0.0000E+00  0.0000E+00  0.0000E+00  0.0000E+00  0.0000E+00  0.0000E+00  0.0000E+00
    -17.289  0.0000E+00  0.0000E+00  0.0000E+00  0.0000E+00  0.0000E+00  0.0000E+00  0.0000E+00  0.0000E+00  0.0000E+00
    -17.166  0.0000E+00  0.0000E+00  0.0000E+00  0.0000E+00  0.0000E+00  0.0000E+00  0.0000E+00  0.0000E+00  0.0000E+00
    -17.044  0.0000E+00  0.0000E+00  0.0000E+00  0.0000E+00  0.0000E+00  0.0000E+00  0.0000E+00  0.0000E+00  0.0000E+00
    -16.921  0.0000E+00  0.0000E+00  0.0000E+00  0.0000E+00  0.0000E+00  0.0000E+00  0.0000E+00  0.0000E+00  0.0000E+00
    -16.799  0.0000E+00  0.0000E+00  0.0000E+00  0.0000E+00  0.0000E+00  0.0000E+00  0.0000E+00  0.0000E+00  0.0000E+00
    -16.676  0.0000E+00  0.0000E+00  0.0000E+00  0.0000E+00  0.0000E+00  0.0000E+00  0.0000E+00  0.0000E+00  0.0000E+00
    -16.554  0.0000E+00  0.0000E+00  0.0000E+00  0.0000E+00  0.0000E+00  0.0000E+00  0.0000E+00  0.0000E+00  0.0000E+00
    -16.431  0.0000E+00  0.0000E+00  0.0000E+00  0.0000E+00  0.0000E+00  0.0000E+00  0.0000E+00  0.0000E+00  0.0000E+00
    -16.309  0.0000E+00  0.0000E+00  0.0000E+00  0.0000E+00  0.0000E+00  0.0000E+00  0.0000E+00  0.0000E+00  0.0000E+00
    -16.186  0.0000E+00  0.0000E+00  0.0000E+00  0.0000E+00  0.0000E+00  0.0000E+00  0.0000E+00  0.0000E+00  0.0000E+00
    -16.064  0.0000E+00  0.0000E+00  0.0000E+00  0.0000E+00  0.0000E+00  0.0000E+00  0.0000E+00  0.0000E+00  0.0000E+00
    -15.941 -0.4536E-34 -0.1506E-36 -0.3172E-36 -0.3422E-36 -0.1402E-36 -0.2745E-37 -0.3899E-37 -0.1150E-36 -0.5046E-38
    -15.819 -0.1997E-29 -0.5545E-32 -0.1466E-31 -0.1449E-31 -0.5753E-32 -0.1377E-32 -0.1756E-32 -0.5156E-32 -0.1829E-33
    -15.696 -0.2438E-25 -0.6496E-28 -0.1810E-27 -0.1755E-27 -0.6918E-28 -0.1723E-28 -0.2156E-28 -0.6317E-28 -0.2137E-29
    -15.574 -0.1467E-21 -0.3764E-24 -0.1103E-23 -0.1050E-23 -0.4106E-24 -0.1060E-24 -0.1306E-24 -0.3814E-24 -0.1237E-25
    -15.452 -0.4327E-18 -0.1075E-20 -0.3298E-20 -0.3086E-20 -0.1197E-20 -0.3183E-21 -0.3881E-21 -0.1127E-20 -0.3547E-22
    -15.329 -0.6049E-15 -0.1467E-17 -0.4689E-17 -0.4310E-17 -0.1657E-17 -0.4510E-18 -0.5476E-18 -0.1577E-17 -0.4885E-19
    -15.207 -0.4124E-12 -0.9836E-15 -0.3248E-14 -0.2941E-14 -0.1121E-14 -0.3104E-15 -0.3767E-15 -0.1075E-14 -0.3314E-16
    -15.084 -0.1347E-09 -0.3181E-12 -0.1082E-11 -0.9644E-12 -0.3642E-12 -0.1021E-12 -0.1244E-12 -0.3507E-12 -0.1091E-13
    -14.962 -0.2074E-07 -0.4877E-10 -0.1704E-09 -0.1494E-09 -0.5584E-10 -0.1579E-10 -0.1941E-10 -0.5389E-10 -0.1712E-11
    -14.839 -0.1485E-05 -0.3495E-08 -0.1254E-07 -0.1080E-07 -0.3984E-08 -0.1134E-08 -0.1413E-08 -0.3848E-08 -0.1264E-09
    -14.717 -0.4832E-04 -0.1144E-06 -0.4238E-06 -0.3565E-06 -0.1293E-06 -0.3703E-07 -0.4705E-07 -0.1247E-06 -0.4306E-08
    -14.594 -0.6807E-03 -0.1635E-05 -0.6336E-05 -0.5145E-05 -0.1815E-05 -0.5236E-06 -0.6878E-06 -0.1745E-05 -0.6542E-07
    -14.472 -0.3556E-02 -0.8875E-05 -0.3775E-04 -0.2849E-04 -0.9420E-05 -0.2765E-05 -0.3912E-05 -0.8992E-05 -0.4026E-06
    -14.349 -0.8824E-03 -0.4928E-05 -0.4535E-04 -0.1984E-04 -0.1979E-05 -0.9798E-06 -0.3464E-05 -0.1444E-05 -0.5614E-06
    -14.227  0.3925E-01  0.8894E-04  0.3027E-03  0.2725E-03  0.1047E-03  0.2918E-04  0.3511E-04  0.1007E-03  0.3053E-05
    -14.104  0.9977E-01  0.2562E-03  0.1166E-02  0.8335E-03  0.2624E-03  0.7733E-04  0.1167E-03  0.2471E-03  0.1287E-04
    -13.982  0.9660E-01  0.3241E-03  0.2085E-02  0.1171E-02  0.2498E-03  0.8706E-04  0.1817E-03  0.2318E-03  0.2373E-04
    -13.859  0.4252E-01  0.2542E-03  0.2435E-02  0.1143E-02  0.1118E-03  0.5609E-04  0.1927E-03  0.1017E-03  0.2665E-04
    -13.737  0.2686E-02  0.5830E-04  0.1415E-02  0.6509E-03  0.2477E-04 -0.1095E-04  0.1052E-03 -0.1197E-04  0.1366E-04
    -13.614  0.3280E-01  0.2076E-03  0.1136E-02  0.2562E-03  0.6092E-04  0.4913E-04  0.6706E-04  0.4282E-04  0.2110E-04
    -13.492  0.1660E+00  0.1500E-02  0.4152E-02  0.6744E-03  0.1799E-03  0.5874E-03  0.2992E-03  0.5790E-03  0.9041E-04
    -13.369  0.2466E+00  0.2613E-02  0.6623E-02  0.1180E-02  0.2096E-03  0.1108E-02  0.5324E-03  0.1073E-02  0.1386E-03
    -13.247  0.2429E+00  0.1928E-02  0.6055E-02  0.1234E-02  0.2159E-03  0.1090E-02  0.5032E-03  0.9408E-03  0.8557E-04
    -13.124  0.2783E+00  0.1135E-02  0.6717E-02  0.1341E-02  0.2968E-03  0.1163E-02  0.5034E-03  0.8265E-03  0.2902E-04
    -13.002  0.2382E+00  0.6474E-03  0.8106E-02  0.1173E-02  0.2253E-03  0.1011E-02  0.4205E-03  0.6156E-03  0.3077E-04
    -12.879  0.2254E+00  0.1938E-03  0.7063E-02  0.1173E-02  0.7212E-04  0.6165E-03  0.2305E-03  0.3573E-03  0.4509E-04
    -12.757  0.2610E+00  0.1707E-02  0.4766E-02  0.2016E-02  0.3331E-04  0.6722E-03  0.2061E-03  0.4735E-03  0.4350E-04
    -12.634  0.2117E+00  0.7327E-02  0.4696E-02  0.3305E-02  0.5736E-04  0.1718E-02  0.2860E-03  0.1082E-02  0.5626E-04
    -12.512  0.1261E+00  0.1162E-01  0.4326E-02  0.3805E-02  0.1402E-03  0.3100E-02  0.2669E-03  0.1793E-02  0.1084E-03
    -12.389  0.8217E-01  0.9746E-02  0.1696E-02  0.3876E-02  0.9724E-03  0.3142E-02  0.4364E-03  0.1739E-02  0.2664E-03
    -12.267  0.1526E+00  0.7717E-02  0.6859E-03  0.8104E-02  0.3607E-02  0.1933E-02  0.1562E-02  0.1078E-02  0.6811E-03
    -12.144  0.2151E+00  0.6011E-02  0.1998E-02  0.1561E-01  0.5918E-02  0.1263E-02  0.2990E-02  0.7958E-03  0.9984E-03
    -12.022  0.1356E+00  0.2447E-02  0.2670E-02  0.1499E-01  0.4606E-02  0.9404E-03  0.2682E-02  0.6459E-03  0.7304E-03
    -11.899  0.2712E-01  0.1595E-03  0.1235E-02  0.5575E-02  0.1428E-02  0.3122E-03  0.9418E-03  0.2273E-03  0.2146E-03
    -11.777 -0.6950E-02 -0.1830E-03  0.2511E-04 -0.1572E-03 -0.1034E-03 -0.2576E-04 -0.3870E-04 -0.1377E-04 -0.1883E-04
    -11.654 -0.5886E-02 -0.6009E-04 -0.1041E-03 -0.5140E-03 -0.1457E-03 -0.3345E-04 -0.8920E-04 -0.2309E-04 -0.2278E-04
    -11.532 -0.1824E-01 -0.7895E-05 -0.2948E-04 -0.1096E-03 -0.3046E-04 -0.6987E-05 -0.1782E-04 -0.4903E-05 -0.4942E-05
    -11.409 -0.3888E-01 -0.1062E-05 -0.2336E-04 -0.5502E-04 -0.1378E-04 -0.3571E-05 -0.5389E-05 -0.3719E-05 -0.2552E-05
    -11.287  0.1254E+00 -0.1037E-05  0.2989E-04 -0.2563E-04  0.1203E-04  0.1537E-05 -0.3716E-05 -0.3737E-05  0.4126E-05
    -11.164  0.6688E+00  0.3113E-06  0.2774E-03  0.4698E-03  0.1535E-03  0.3461E-04  0.3917E-04  0.2765E-04  0.3290E-04
    -11.042  0.1048E+01  0.7862E-05  0.5916E-03  0.1260E-02  0.3132E-03  0.9495E-04  0.1104E-03  0.9993E-04  0.6039E-04
    -10.919  0.9118E+00  0.5786E-04  0.9493E-03  0.1842E-02  0.3677E-03  0.1675E-03  0.1520E-03  0.1913E-03  0.6250E-04
    -10.797  0.8577E+00  0.1628E-03  0.1365E-02  0.2558E-02  0.4591E-03  0.2105E-03  0.1944E-03  0.2585E-03  0.6929E-04
    -10.674  0.8584E+00  0.3452E-03  0.1165E-02  0.2754E-02  0.5026E-03  0.1467E-03  0.1829E-03  0.1945E-03  0.7395E-04
    -10.552  0.8825E+00  0.5280E-03  0.9778E-03  0.2695E-02  0.5091E-03  0.6760E-04  0.1482E-03  0.9750E-04  0.7489E-04
    -10.429  0.6591E+00  0.3610E-03  0.9751E-03  0.1735E-02  0.3217E-03  0.7642E-04  0.9446E-04  0.9523E-04  0.4697E-04
    -10.307  0.3860E+00  0.3413E-03  0.9665E-03  0.8748E-03  0.1097E-03  0.2344E-03  0.5529E-04  0.2776E-03  0.1024E-04
    -10.184  0.4509E+00  0.1265E-02  0.2163E-02  0.1761E-02  0.2249E-03  0.4484E-03  0.1130E-03  0.5012E-03  0.5352E-05
    -10.062  0.6040E+00  0.3411E-02  0.3933E-02  0.2591E-02  0.4087E-03  0.6677E-03  0.1676E-03  0.5940E-03  0.1010E-04
     -9.939  0.6528E+00  0.4598E-02  0.3979E-02  0.1746E-02  0.3324E-03  0.7625E-03  0.1210E-03  0.5385E-03  0.7859E-05
     -9.817  0.3821E+00  0.2623E-02  0.2939E-02  0.9675E-03  0.2266E-03  0.4230E-03  0.7608E-04  0.2584E-03  0.2898E-05
     -9.694  0.1032E+00  0.4026E-03  0.2313E-02  0.1047E-02  0.2303E-03  0.6665E-04  0.7831E-04  0.3411E-04  0.8951E-06
     -9.572  0.6128E-01 -0.8846E-04  0.1550E-02  0.9165E-03  0.1750E-03  0.1723E-04  0.5698E-04  0.3614E-05  0.3591E-06
     -9.449  0.1451E+00  0.2186E-04  0.1358E-02  0.1030E-02  0.1582E-03  0.1085E-03  0.4396E-04  0.4162E-04  0.1329E-06
     -9.327  0.2237E+00  0.7998E-04  0.1352E-02  0.1254E-02  0.1605E-03  0.2071E-03  0.3782E-04  0.7658E-04  0.1581E-06
     -9.204  0.1959E+00  0.6458E-04  0.8861E-03  0.9837E-03  0.1078E-03  0.2005E-03  0.2122E-04  0.7164E-04  0.1575E-06
     -9.082  0.6768E-01  0.2056E-04  0.2507E-03  0.3206E-03  0.3109E-04  0.7336E-04  0.5194E-05  0.2571E-04  0.7743E-07
     -8.959 -0.4431E-02 -0.1860E-05 -0.3189E-04 -0.2604E-04 -0.3778E-05 -0.3540E-05 -0.9233E-06 -0.1377E-05  0.6912E-08
     -8.837 -0.6566E-02 -0.2153E-05 -0.2877E-04 -0.3270E-04 -0.3507E-05 -0.6819E-05 -0.6773E-06 -0.2424E-05 -0.6206E-08
     -8.714 -0.1165E-02 -0.3748E-06 -0.4827E-05 -0.5742E-05 -0.5883E-06 -0.1247E-05 -0.1107E-06 -0.4400E-06 -0.1830E-08
     -8.592 -0.8150E-04 -0.2619E-07 -0.3303E-06 -0.4019E-06 -0.4001E-07 -0.8927E-07 -0.7546E-08 -0.3137E-07 -0.1858E-09
     -8.469 -0.2594E-05 -0.8424E-09 -0.1046E-07 -0.1287E-07 -0.1252E-08 -0.2907E-08 -0.2406E-09 -0.1019E-08 -0.8218E-11
     -8.347 -0.3949E-07 -0.1310E-10 -0.1603E-09 -0.1978E-09 -0.1886E-10 -0.4531E-10 -0.3741E-11 -0.1588E-10 -0.1675E-12
     -8.225 -0.2938E-09 -0.1005E-12 -0.1212E-11 -0.1489E-11 -0.1395E-12 -0.3453E-12 -0.2879E-13 -0.1211E-12 -0.1601E-14
     -8.102 -0.1077E-11 -0.3822E-15 -0.4543E-14 -0.5521E-14 -0.5094E-15 -0.1296E-14 -0.1097E-15 -0.4550E-15 -0.7224E-17
     -7.980 -0.1938E-14 -0.7142E-18 -0.8342E-17 -0.1002E-16 -0.9099E-18 -0.2384E-17 -0.2041E-18 -0.8384E-18 -0.1540E-19
     -7.857 -0.9872E-18 -0.4725E-21 -0.4833E-20 -0.5288E-20 -0.4624E-21 -0.1322E-20 -0.1224E-21 -0.4730E-21 -0.1508E-22
     -7.735  0.0000E+00  0.0000E+00  0.0000E+00  0.0000E+00  0.0000E+00  0.0000E+00  0.0000E+00  0.0000E+00  0.0000E+00
     -7.612  0.0000E+00  0.0000E+00  0.0000E+00  0.0000E+00  0.0000E+00  0.0000E+00  0.0000E+00  0.0000E+00  0.0000E+00
     -7.490  0.0000E+00  0.0000E+00  0.0000E+00  0.0000E+00  0.0000E+00  0.0000E+00  0.0000E+00  0.0000E+00  0.0000E+00
     -7.367  0.0000E+00  0.0000E+00  0.0000E+00  0.0000E+00  0.0000E+00  0.0000E+00  0.0000E+00  0.0000E+00  0.0000E+00
     -7.245  0.0000E+00  0.0000E+00  0.0000E+00  0.0000E+00  0.0000E+00  0.0000E+00  0.0000E+00  0.0000E+00  0.0000E+00
     -7.122  0.0000E+00  0.0000E+00  0.0000E+00  0.0000E+00  0.0000E+00  0.0000E+00  0.0000E+00  0.0000E+00  0.0000E+00
     -7.000  0.0000E+00  0.0000E+00  0.0000E+00  0.0000E+00  0.0000E+00  0.0000E+00  0.0000E+00  0.0000E+00  0.0000E+00
     -6.877  0.0000E+00  0.0000E+00  0.0000E+00  0.0000E+00  0.0000E+00  0.0000E+00  0.0000E+00  0.0000E+00  0.0000E+00
     -6.755  0.0000E+00  0.0000E+00  0.0000E+00  0.0000E+00  0.0000E+00  0.0000E+00  0.0000E+00  0.0000E+00  0.0000E+00