       N       E                     dE             d eps       ncg     rms          rms(c)
DAV:   1     0.174595271628E+04    0.17460E+04   -0.10210E+05 11264   0.641E+02
DAV:   2     0.105169981863E+02   -0.17354E+04   -0.16948E+04 14080   0.203E+02
DAV:   3    -0.119522587563E+03   -0.13004E+03   -0.12966E+03 12544   0.679E+01
DAV:   4    -0.122127965647E+03   -0.26054E+01   -0.26051E+01 19712   0.118E+01
DAV:   5    -0.122135551691E+03   -0.75860E-02   -0.75860E-02 12672   0.488E-01    0.126E+01
RMM:   6    -0.111704367994E+03    0.10431E+02   -0.14148E+01 11451   0.426E+00    0.446E+00
RMM:   7    -0.111106807519E+03    0.59756E+00   -0.62873E-01 12448   0.201E+00    0.275E+00
RMM:   8    -0.110977832796E+03    0.12897E+00   -0.46915E-01 11268   0.116E+00    0.822E-01
RMM:   9    -0.110942162870E+03    0.35670E-01   -0.49238E-02 12431   0.442E-01    0.422E-01
RMM:  10    -0.110949745546E+03   -0.75827E-02   -0.14707E-02 11300   0.195E-01    0.260E-01
RMM:  11    -0.110955339143E+03   -0.55936E-02   -0.79404E-03 11452   0.117E-01    0.101E-01
RMM:  12    -0.110956758674E+03   -0.14195E-02   -0.27761E-03 11707   0.734E-02    0.745E-02
RMM:  13    -0.110956917872E+03   -0.15920E-03   -0.54665E-04 11946   0.342E-02    0.565E-02
RMM:  14    -0.110956830262E+03    0.87611E-04   -0.43748E-04 11442   0.271E-02    0.204E-02
RMM:  15    -0.110956805825E+03    0.24436E-04   -0.61690E-05 11582   0.145E-02    0.121E-02
RMM:  16    -0.110956803713E+03    0.21118E-05   -0.16919E-05 10449   0.683E-03    0.574E-03
RMM:  17    -0.110956804584E+03   -0.87063E-06    0.91295E-06 10456   0.425E-03
   1 F= -.11095680E+03 E0= -.11098945E+03  d E =-.110957E+03
       N       E                     dE             d eps       ncg     rms          rms(c)
DAV:   1    -0.111574588996E+03   -0.61779E+00   -0.77976E+02 11264   0.427E+01    0.204E+00
RMM:   2    -0.113868769014E+03   -0.22942E+01   -0.23521E+01 11264   0.832E+00    0.934E-01
RMM:   3    -0.113976788990E+03   -0.10802E+00   -0.19197E+00 13822   0.255E+00    0.685E-01
RMM:   4    -0.113972714291E+03    0.40747E-02   -0.42901E-02 11356   0.454E-01    0.444E-01
RMM:   5    -0.113971808529E+03    0.90576E-03   -0.19104E-02 11625   0.239E-01    0.264E-01
RMM:   6    -0.113970103133E+03    0.17054E-02   -0.67299E-03 13151   0.143E-01    0.138E-01
RMM:   7    -0.113969706380E+03    0.39675E-03   -0.64877E-04 11987   0.533E-02    0.922E-02
RMM:   8    -0.113969370346E+03    0.33603E-03   -0.93159E-04 11759   0.584E-02    0.320E-02
RMM:   9    -0.113969356792E+03    0.13554E-04   -0.21887E-04 11624   0.278E-02    0.224E-02
RMM:  10    -0.113969336296E+03    0.20496E-04   -0.41022E-05 12045   0.131E-02    0.949E-03
RMM:  11    -0.113969326514E+03    0.97821E-05   -0.16775E-05 11089   0.789E-03    0.532E-03
RMM:  12    -0.113969320063E+03    0.64505E-05   -0.36540E-06 10297   0.329E-03    0.326E-03
RMM:  13    -0.113969316261E+03    0.38019E-05   -0.33828E-06  9323   0.275E-03    0.121E-03
RMM:  14    -0.113969316292E+03   -0.30264E-07   -0.50615E-07  8108   0.162E-03
   2 F= -.11396932E+03 E0= -.11400522E+03  d E =-.301251E+01
       N       E                     dE             d eps       ncg     rms          rms(c)
DAV:   1    -0.112299112215E+03    0.16702E+01   -0.98728E+02 11264   0.486E+01    0.230E+00
RMM:   2    -0.115191929908E+03   -0.28928E+01   -0.29855E+01 11264   0.925E+00    0.109E+00
RMM:   3    -0.115303788224E+03   -0.11186E+00   -0.22469E+00 13791   0.275E+00    0.771E-01
RMM:   4    -0.115299416306E+03    0.43719E-02   -0.62015E-02 11306   0.516E-01    0.497E-01
RMM:   5    -0.115297478915E+03    0.19374E-02   -0.24207E-02 12009   0.255E-01    0.293E-01
RMM:   6    -0.115295675847E+03    0.18031E-02   -0.54077E-03 13155   0.127E-01    0.147E-01
RMM:   7    -0.115295079628E+03    0.59622E-03   -0.10256E-03 11962   0.649E-02    0.813E-02
RMM:   8    -0.115294851434E+03    0.22819E-03   -0.12300E-03 11498   0.620E-02    0.344E-02
RMM:   9    -0.115294819011E+03    0.32423E-04   -0.17547E-04 13259   0.247E-02    0.238E-02
RMM:  10    -0.115294793216E+03    0.25794E-04   -0.35108E-05 11170   0.102E-02    0.120E-02
RMM:  11    -0.115294772604E+03    0.20613E-04   -0.32058E-05 10944   0.106E-02    0.660E-03
RMM:  12    -0.115294761147E+03    0.11457E-04   -0.73045E-06  9836   0.383E-03    0.315E-03
RMM:  13    -0.115294758079E+03    0.30687E-05   -0.35049E-06  9624   0.243E-03    0.137E-03
RMM:  14    -0.115294758131E+03   -0.52642E-07   -0.49096E-07  8214   0.145E-03
   3 F= -.11529476E+03 E0= -.11533272E+03  d E =-.433795E+01
       N       E                     dE             d eps       ncg     rms          rms(c)
DAV:   1    -0.115289857881E+03    0.49002E-02   -0.19517E+02 11264   0.184E+01    0.943E-01
RMM:   2    -0.115796061787E+03   -0.50620E+00   -0.52399E+00 11278   0.388E+00    0.442E-01
RMM:   3    -0.115811782872E+03   -0.15721E-01   -0.49240E-01 13678   0.139E+00    0.364E-01
RMM:   4    -0.115810433703E+03    0.13492E-02   -0.75254E-03 11770   0.179E-01    0.265E-01
RMM:   5    -0.115809580353E+03    0.85335E-03   -0.54124E-03 11401   0.124E-01    0.115E-01
RMM:   6    -0.115809364181E+03    0.21617E-03   -0.16866E-03 13203   0.690E-02    0.632E-02
RMM:   7    -0.115809220489E+03    0.14369E-03   -0.11807E-04 11686   0.217E-02    0.410E-02
RMM:   8    -0.115809156578E+03    0.63911E-04   -0.29403E-04 11406   0.299E-02    0.149E-02
RMM:   9    -0.115809153704E+03    0.28739E-05   -0.37464E-05 12962   0.116E-02    0.926E-03
RMM:  10    -0.115809148798E+03    0.49057E-05   -0.11534E-05 10886   0.598E-03    0.427E-03
RMM:  11    -0.115809144583E+03    0.42150E-05   -0.53540E-06  9574   0.352E-03    0.251E-03
RMM:  12    -0.115809142259E+03    0.23242E-05   -0.22048E-06  9251   0.279E-03    0.128E-03
RMM:  13    -0.115809142137E+03    0.12263E-06   -0.61540E-07  8274   0.138E-03
   4 F= -.11580914E+03 E0= -.11584602E+03  d E =-.514384E+00
       N       E                     dE             d eps       ncg     rms          rms(c)
DAV:   1    -0.115606147013E+03    0.20300E+00   -0.13301E+02 13568   0.149E+01    0.785E-01
RMM:   2    -0.115945419694E+03   -0.33927E+00   -0.35192E+00 11296   0.317E+00    0.365E-01
RMM:   3    -0.115955226070E+03   -0.98064E-02   -0.33810E-01 13659   0.115E+00    0.288E-01
RMM:   4    -0.115954476088E+03    0.74998E-03   -0.53967E-03 11727   0.153E-01    0.196E-01
RMM:   5    -0.115954084942E+03    0.39115E-03   -0.38425E-03 11336   0.104E-01    0.715E-02
RMM:   6    -0.115953974361E+03    0.11058E-03   -0.70231E-04 12772   0.488E-02    0.457E-02
RMM:   7    -0.115953907937E+03    0.66424E-04   -0.79750E-05 11414   0.169E-02    0.327E-02
RMM:   8    -0.115953860764E+03    0.47173E-04   -0.17231E-04 11452   0.233E-02    0.123E-02
RMM:   9    -0.115953856528E+03    0.42357E-05   -0.22119E-05 12825   0.869E-03    0.752E-03
RMM:  10    -0.115953852694E+03    0.38341E-05   -0.84327E-06 10690   0.504E-03    0.349E-03
RMM:  11    -0.115953849252E+03    0.34423E-05   -0.39346E-06  9415   0.284E-03    0.184E-03
RMM:  12    -0.115953847864E+03    0.13882E-05   -0.12952E-06  8870   0.216E-03    0.101E-03
RMM:  13    -0.115953847922E+03   -0.57946E-07   -0.38881E-07  7900   0.112E-03
   5 F= -.11595385E+03 E0= -.11598822E+03  d E =-.659090E+00
       N       E                     dE             d eps       ncg     rms          rms(c)
DAV:   1    -0.115938497530E+03    0.15350E-01   -0.53233E+01 14848   0.882E+00    0.454E-01
RMM:   2    -0.116060934268E+03   -0.12244E+00   -0.12622E+00 11407   0.185E+00    0.209E-01
RMM:   3    -0.116066862360E+03   -0.59281E-02   -0.12663E-01 13636   0.661E-01    0.161E-01
RMM:   4    -0.116066815705E+03    0.46655E-04   -0.21752E-03 11755   0.961E-02    0.813E-02
RMM:   5    -0.116066912728E+03   -0.97022E-04   -0.90763E-04 12349   0.449E-02    0.315E-02
RMM:   6    -0.116066877946E+03    0.34782E-04   -0.52737E-05 12612   0.160E-02    0.223E-02
RMM:   7    -0.116066853366E+03    0.24580E-04   -0.38391E-05 11650   0.114E-02    0.838E-03
RMM:   8    -0.116066852681E+03    0.68549E-06   -0.18472E-05 11290   0.735E-03    0.472E-03
RMM:   9    -0.116066852672E+03    0.87020E-08   -0.19811E-06  9848   0.314E-03
   6 F= -.11606685E+03 E0= -.11610077E+03  d E =-.113005E+00
       N       E                     dE             d eps       ncg     rms          rms(c)
DAV:   1    -0.115977137837E+03    0.89715E-01   -0.53275E+01 11776   0.879E+00    0.459E-01
RMM:   2    -0.116100887122E+03   -0.12375E+00   -0.12757E+00 11443   0.187E+00    0.210E-01
RMM:   3    -0.116106397182E+03   -0.55101E-02   -0.12795E-01 13647   0.678E-01    0.161E-01
RMM:   4    -0.116106412515E+03   -0.15334E-04   -0.21636E-03 11760   0.953E-02    0.910E-02
RMM:   5    -0.116106605530E+03   -0.19301E-03   -0.83605E-04 12416   0.434E-02    0.639E-02
RMM:   6    -0.116106402115E+03    0.20341E-03   -0.11267E-04 12737   0.179E-02    0.218E-02
RMM:   7    -0.116106380645E+03    0.21470E-04   -0.45348E-05 11809   0.128E-02    0.906E-03
RMM:   8    -0.116106379174E+03    0.14713E-05   -0.18713E-05 11308   0.737E-03    0.495E-03
RMM:   9    -0.116106378935E+03    0.23859E-06   -0.22984E-06 10057   0.305E-03
   7 F= -.11610638E+03 E0= -.11613950E+03  d E =-.152531E+00
       N       E                     dE             d eps       ncg     rms          rms(c)
DAV:   1    -0.116078406184E+03    0.27973E-01   -0.39243E+01 11264   0.780E+00    0.467E-01
RMM:   2    -0.116174872970E+03   -0.96467E-01   -0.99993E-01 11437   0.169E+00    0.207E-01
RMM:   3    -0.116175383745E+03   -0.51077E-03   -0.91580E-02 13632   0.611E-01    0.149E-01
RMM:   4    -0.116175228896E+03    0.15485E-03   -0.17648E-03 11618   0.837E-02    0.937E-02
RMM:   5    -0.116175216807E+03    0.12089E-04   -0.96793E-04 12004   0.459E-02    0.299E-02
RMM:   6    -0.116175199137E+03    0.17670E-04   -0.80857E-05 12562   0.194E-02    0.194E-02
RMM:   7    -0.116175190872E+03    0.82650E-05   -0.17003E-05 11100   0.728E-03    0.127E-02
RMM:   8    -0.116175186525E+03    0.43470E-05   -0.23354E-05 11037   0.780E-03    0.455E-03
RMM:   9    -0.116175187114E+03   -0.58851E-06   -0.20560E-06  9939   0.318E-03
   8 F= -.11617519E+03 E0= -.11620914E+03  d E =-.688082E-01
       N       E                     dE             d eps       ncg     rms          rms(c)
DAV:   1    -0.116132838267E+03    0.42348E-01   -0.25027E+01 12032   0.626E+00    0.372E-01
RMM:   2    -0.116193613657E+03   -0.60775E-01   -0.63011E-01 11456   0.136E+00    0.166E-01
RMM:   3    -0.116194004251E+03   -0.39059E-03   -0.57432E-02 13610   0.485E-01    0.119E-01
RMM:   4    -0.116193922889E+03    0.81363E-04   -0.11072E-03 11724   0.668E-02    0.783E-02
RMM:   5    -0.116193920996E+03    0.18927E-05   -0.57340E-04 12228   0.347E-02    0.325E-02
RMM:   6    -0.116193891272E+03    0.29724E-04   -0.58768E-05 12544   0.146E-02    0.180E-02
RMM:   7    -0.116193879034E+03    0.12238E-04   -0.11219E-05 10716   0.600E-03    0.924E-03
RMM:   8    -0.116193877795E+03    0.12388E-05   -0.15487E-05 10573   0.597E-03    0.336E-03
RMM:   9    -0.116193878072E+03   -0.27682E-06   -0.13911E-06  9005   0.268E-03
   9 F= -.11619388E+03 E0= -.11622838E+03  d E =-.874991E-01
       N       E                     dE             d eps       ncg     rms          rms(c)
DAV:   1    -0.116124786059E+03    0.69092E-01   -0.55338E+01 11264   0.945E+00    0.515E-01
RMM:   2    -0.116258054705E+03   -0.13327E+00   -0.13657E+00 11421   0.203E+00    0.244E-01
RMM:   3    -0.116261179379E+03   -0.31247E-02   -0.13250E-01 13667   0.742E-01    0.177E-01
RMM:   4    -0.116261105770E+03    0.73610E-04   -0.26048E-03 11474   0.107E-01    0.816E-02
RMM:   5    -0.116261264142E+03   -0.15837E-03   -0.85545E-04 12748   0.450E-02    0.463E-02
RMM:   6    -0.116261163502E+03    0.10064E-03   -0.60092E-05 12105   0.161E-02    0.216E-02
RMM:   7    -0.116261147943E+03    0.15559E-04   -0.38370E-05 11488   0.119E-02    0.103E-02
RMM:   8    -0.116261143609E+03    0.43336E-05   -0.15043E-05 11468   0.697E-03    0.470E-03
RMM:   9    -0.116261144106E+03   -0.49718E-06   -0.19988E-06  9886   0.283E-03
  10 F= -.11626114E+03 E0= -.11629517E+03  d E =-.672660E-01
       N       E                     dE             d eps       ncg     rms          rms(c)
DAV:   1    -0.115823277723E+03    0.43787E+00   -0.18774E+02 11264   0.181E+01    0.955E-01
RMM:   2    -0.116301513422E+03   -0.47824E+00   -0.48946E+00 11282   0.375E+00    0.450E-01
RMM:   3    -0.116315234349E+03   -0.13721E-01   -0.46046E-01 13775   0.137E+00    0.336E-01
RMM:   4    -0.116314851888E+03    0.38246E-03   -0.90064E-03 11353   0.199E-01    0.168E-01
RMM:   5    -0.116315478433E+03   -0.62654E-03   -0.36103E-03 12475   0.945E-02    0.934E-02
RMM:   6    -0.116315067686E+03    0.41075E-03   -0.27698E-04 12621   0.338E-02    0.462E-02
RMM:   7    -0.116315000478E+03    0.67208E-04   -0.16940E-04 11459   0.261E-02    0.213E-02
RMM:   8    -0.116314982075E+03    0.18402E-04   -0.63345E-05 11624   0.151E-02    0.919E-03
RMM:   9    -0.116314983523E+03   -0.14471E-05   -0.98567E-06 11648   0.582E-03    0.544E-03
RMM:  10    -0.116314983999E+03   -0.47634E-06   -0.38495E-06  9694   0.319E-03
  11 F= -.11631498E+03 E0= -.11634808E+03  d E =-.121106E+00
       N       E                     dE             d eps       ncg     rms          rms(c)
DAV:   1    -0.116261010145E+03    0.53973E-01   -0.44975E+01 14848   0.850E+00    0.465E-01
RMM:   2    -0.116366683545E+03   -0.10567E+00   -0.10851E+00 11464   0.181E+00    0.218E-01
RMM:   3    -0.116370351066E+03   -0.36675E-02   -0.10663E-01 13645   0.637E-01    0.161E-01
RMM:   4    -0.116370322618E+03    0.28449E-04   -0.20373E-03 11550   0.945E-02    0.713E-02
RMM:   5    -0.116370460373E+03   -0.13776E-03   -0.64122E-04 12568   0.380E-02    0.429E-02
RMM:   6    -0.116370357225E+03    0.10315E-03   -0.52815E-05 12138   0.153E-02    0.185E-02
RMM:   7    -0.116370346262E+03    0.10962E-04   -0.24933E-05 11277   0.989E-03    0.953E-03
RMM:   8    -0.116370342865E+03    0.33974E-05   -0.11620E-05 11187   0.614E-03    0.412E-03
RMM:   9    -0.116370343014E+03   -0.14871E-06   -0.15403E-06  9322   0.266E-03
  12 F= -.11637034E+03 E0= -.11640297E+03  d E =-.553590E-01
       N       E                     dE             d eps       ncg     rms          rms(c)
DAV:   1    -0.115754855828E+03    0.61549E+00   -0.25180E+02 11264   0.213E+01    0.112E+00
RMM:   2    -0.116410754012E+03   -0.65590E+00   -0.67327E+00 11280   0.441E+00    0.515E-01
RMM:   3    -0.116431909659E+03   -0.21156E-01   -0.63030E-01 13751   0.159E+00    0.402E-01
RMM:   4    -0.116431182499E+03    0.72716E-03   -0.12045E-02 11386   0.234E-01    0.201E-01
RMM:   5    -0.116431808453E+03   -0.62595E-03   -0.53951E-03 11926   0.117E-01    0.771E-02
RMM:   6    -0.116431606804E+03    0.20165E-03   -0.45591E-04 13228   0.477E-02    0.551E-02
RMM:   7    -0.116431500070E+03    0.10673E-03   -0.17494E-04 11157   0.258E-02    0.257E-02
RMM:   8    -0.116431481051E+03    0.19019E-04   -0.73624E-05 11728   0.167E-02    0.118E-02
RMM:   9    -0.116431480835E+03    0.21669E-06   -0.15576E-05 12209   0.721E-03    0.740E-03
RMM:  10    -0.116431480278E+03    0.55612E-06   -0.75504E-06 11076   0.578E-03
  13 F= -.11643148E+03 E0= -.11646280E+03  d E =-.116496E+00
       N       E                     dE             d eps       ncg     rms          rms(c)
DAV:   1    -0.116422235326E+03    0.92455E-02   -0.42798E+00 16896   0.262E+00    0.141E-01
RMM:   2    -0.116431914864E+03   -0.96795E-02   -0.99289E-02 11589   0.554E-01    0.673E-02
RMM:   3    -0.116432292119E+03   -0.37725E-03   -0.95201E-03 13440   0.186E-01    0.466E-02
RMM:   4    -0.116432293778E+03   -0.16585E-05   -0.18421E-04 11431   0.278E-02    0.182E-02
RMM:   5    -0.116432302132E+03   -0.83539E-05   -0.43982E-05 11412   0.104E-02    0.109E-02
RMM:   6    -0.116432296361E+03    0.57703E-05   -0.50719E-06 11193   0.535E-03    0.465E-03
RMM:   7    -0.116432295401E+03    0.96055E-06   -0.99753E-07  8220   0.208E-03
  14 F= -.11643230E+03 E0= -.11646343E+03  d E =-.117311E+00
       N       E                     dE             d eps       ncg     rms          rms(c)
DAV:   1    -0.116349004144E+03    0.83292E-01   -0.44848E+01 11264   0.874E+00    0.486E-01
RMM:   2    -0.116459887030E+03   -0.11088E+00   -0.11421E+00 11459   0.190E+00    0.226E-01
RMM:   3    -0.116460236105E+03   -0.34908E-03   -0.10821E-01 13617   0.697E-01    0.166E-01
RMM:   4    -0.116460205991E+03    0.30114E-04   -0.19792E-03 11521   0.929E-02    0.106E-01
RMM:   5    -0.116460204516E+03    0.14752E-05   -0.91760E-04 12114   0.477E-02    0.498E-02
RMM:   6    -0.116460123454E+03    0.81062E-04   -0.10895E-04 12680   0.195E-02    0.247E-02
RMM:   7    -0.116460100002E+03    0.23452E-04   -0.21517E-05 11317   0.953E-03    0.136E-02
RMM:   8    -0.116460094535E+03    0.54669E-05   -0.29511E-05 10985   0.996E-03    0.446E-03
RMM:   9    -0.116460095037E+03   -0.50112E-06   -0.23361E-06 10038   0.336E-03
  15 F= -.11646010E+03 E0= -.11649168E+03  d E =-.277996E-01
       N       E                     dE             d eps       ncg     rms          rms(c)
DAV:   1    -0.116451941263E+03    0.81533E-02   -0.42423E+00 16640   0.266E+00    0.145E-01
RMM:   2    -0.116461838715E+03   -0.98975E-02   -0.10187E-01 11555   0.569E-01    0.694E-02
RMM:   3    -0.116462007925E+03   -0.16921E-03   -0.94558E-03 13555   0.196E-01    0.489E-02
RMM:   4    -0.116462018200E+03   -0.10275E-04   -0.17259E-04 11629   0.267E-02    0.334E-02
RMM:   5    -0.116462011023E+03    0.71776E-05   -0.74049E-05 12334   0.125E-02    0.138E-02
RMM:   6    -0.116462005654E+03    0.53689E-05   -0.73768E-06 10937   0.532E-03    0.639E-03
RMM:   7    -0.116462003721E+03    0.19326E-05   -0.11037E-06  8543   0.201E-03    0.320E-03
RMM:   8    -0.116462003495E+03    0.22554E-06   -0.13388E-06  8311   0.196E-03
  16 F= -.11646200E+03 E0= -.11649370E+03  d E =-.297081E-01
       N       E                     dE             d eps       ncg     rms          rms(c)
DAV:   1    -0.116438554027E+03    0.23450E-01   -0.15477E+01 11264   0.508E+00    0.268E-01
RMM:   2    -0.116475563700E+03   -0.37010E-01   -0.37959E-01 11476   0.109E+00    0.123E-01
RMM:   3    -0.116476313789E+03   -0.75009E-03   -0.35984E-02 13617   0.392E-01    0.884E-02
RMM:   4    -0.116476330902E+03   -0.17113E-04   -0.67494E-04 11608   0.560E-02    0.473E-02
RMM:   5    -0.116476356973E+03   -0.26071E-04   -0.23753E-04 12673   0.232E-02    0.236E-02
RMM:   6    -0.116476334581E+03    0.22392E-04   -0.18803E-05 12113   0.936E-03    0.114E-02
RMM:   7    -0.116476330300E+03    0.42816E-05   -0.48342E-06 10386   0.403E-03    0.695E-03
RMM:   8    -0.116476327805E+03    0.24943E-05   -0.65778E-06 10673   0.403E-03    0.219E-03
RMM:   9    -0.116476327850E+03   -0.44445E-07   -0.83665E-07  8126   0.193E-03
  17 F= -.11647633E+03 E0= -.11650774E+03  d E =-.143244E-01
       N       E                     dE             d eps       ncg     rms          rms(c)
DAV:   1    -0.116467009907E+03    0.93179E-02   -0.49232E+00 14080   0.284E+00    0.149E-01
RMM:   2    -0.116478446052E+03   -0.11436E-01   -0.11728E-01 11538   0.610E-01    0.688E-02
RMM:   3    -0.116478812253E+03   -0.36620E-03   -0.11046E-02 13510   0.209E-01    0.485E-02
RMM:   4    -0.116478820556E+03   -0.83028E-05   -0.20755E-04 11665   0.312E-02    0.252E-02
RMM:   5    -0.116478826445E+03   -0.58895E-05   -0.67795E-05 12371   0.123E-02    0.116E-02
RMM:   6    -0.116478820684E+03    0.57606E-05   -0.52930E-06 11118   0.537E-03    0.560E-03
RMM:   7    -0.116478819561E+03    0.11233E-05   -0.10748E-06  8306   0.200E-03    0.353E-03
RMM:   8    -0.116478818827E+03    0.73436E-06   -0.12848E-06  8288   0.190E-03
  18 F= -.11647882E+03 E0= -.11651007E+03  d E =-.168153E-01
       N       E                     dE             d eps       ncg     rms          rms(c)
DAV:   1    -0.116466594458E+03    0.12225E-01   -0.88140E+00 11520   0.357E+00    0.201E-01
RMM:   2    -0.116486712795E+03   -0.20118E-01   -0.20709E-01 11469   0.757E-01    0.935E-02
RMM:   3    -0.116487190982E+03   -0.47819E-03   -0.19773E-02 13556   0.273E-01    0.678E-02
RMM:   4    -0.116487227776E+03   -0.36794E-04   -0.31969E-04 11693   0.347E-02    0.498E-02
RMM:   5    -0.116487196617E+03    0.31159E-04   -0.14860E-04 12355   0.172E-02    0.170E-02
RMM:   6    -0.116487190463E+03    0.61533E-05   -0.13227E-05 11537   0.741E-03    0.677E-03
RMM:   7    -0.116487189255E+03    0.12079E-05   -0.29239E-06  9855   0.301E-03    0.416E-03
RMM:   8    -0.116487188589E+03    0.66605E-06   -0.21067E-06  8914   0.225E-03
  19 F= -.11648719E+03 E0= -.11651823E+03  d E =-.836976E-02
       N       E                     dE             d eps       ncg     rms          rms(c)
DAV:   1    -0.116475982442E+03    0.11207E-01   -0.60020E+00 12288   0.294E+00    0.165E-01
RMM:   2    -0.116489539999E+03   -0.13558E-01   -0.13953E-01 11471   0.623E-01    0.771E-02
RMM:   3    -0.116489921277E+03   -0.38128E-03   -0.13305E-02 13485   0.221E-01    0.555E-02
RMM:   4    -0.116489949645E+03   -0.28368E-04   -0.21776E-04 11653   0.285E-02    0.408E-02
RMM:   5    -0.116489927928E+03    0.21717E-04   -0.97498E-05 12343   0.138E-02    0.140E-02
RMM:   6    -0.116489923329E+03    0.45990E-05   -0.85260E-06 11267   0.605E-03    0.533E-03
RMM:   7    -0.116489922573E+03    0.75562E-06   -0.18602E-06  8811   0.249E-03
  20 F= -.11648992E+03 E0= -.11652079E+03  d E =-.111037E-01
