Tetradymite Slab                        
           1
     3.630884    0.000000   -6.288876
    -0.000000   31.174578   -4.192584
     0.000000    0.000000   16.770336
   Bi   Se
  12  18
Direct configuration=     1
   0.66666700  0.06252458  0.22396452
   0.66666700  0.27080942  0.02603573
   0.00000000  0.39585758  0.05729777
   0.00000000  0.60414242  0.10936898
   0.33333300  0.72919058  0.14063102
   0.33333300  0.93747542  0.19270223
   0.66666700  0.06252458  0.47396452
   0.66666700  0.27080942  0.27603573
   0.00000000  0.39585758  0.30729777
   0.00000000  0.60414242  0.35936898
   0.33333300  0.72919058  0.39063102
   0.33333300  0.93747542  0.44270223
   0.00000000  0.00000000  0.20833338
   0.33333300  0.11276663  0.23652503
   0.00000000  0.22056637  0.01347497
   0.33333300  0.33333300  0.04166663
   0.66666700  0.44610063  0.06985853
   0.33333300  0.55389937  0.09680822
   0.66666700  0.66666700  0.12500012
   0.00000000  0.77943363  0.15319178
   0.66666700  0.88723337  0.18014172
   0.00000000  0.00000000  0.45833338
   0.33333300  0.11276663  0.48652503
   0.00000000  0.22056637  0.26347497
   0.33333300  0.33333300  0.29166663
   0.66666700  0.44610063  0.31985853
   0.33333300  0.55389937  0.34680822
   0.66666700  0.66666700  0.37500012
   0.00000000  0.77943363  0.40319178
   0.66666700  0.88723337  0.43014172
Direct configuration=     2
   0.66666700  0.06252458  0.22396452
   0.69240226  0.26984523  0.03730488
   0.01991577  0.39680218  0.06903735
   0.02595110  0.60316919  0.12057313
   0.35315192  0.73016399  0.15231801
   0.35923263  0.93653042  0.20391873
   0.66666700  0.06252458  0.47396452
   0.66666700  0.27080942  0.27603573
  -0.02589832  0.39680261  0.29608190
  -0.01981831  0.60316928  0.34768243
   0.30738107  0.73016408  0.37942661
   0.31341578  0.93653085  0.43096192
   0.01868189 -0.00003363  0.21765461
   0.34457321  0.11114215  0.24203344
   0.01226174  0.22219054  0.01960612
   0.33333300  0.33333300  0.04166663
   0.67744182  0.44444631  0.07515974
   0.34542431  0.55556351  0.10295924
   0.68516880  0.66666658  0.13425117
   0.01085423  0.77776726  0.15851330
   0.67876845  0.88888533  0.18628609
   0.00000000  0.00000000  0.45833338
   0.33333300  0.11276663  0.48652503
  -0.01124060  0.22219097  0.25796644
   0.31465103  0.33336669  0.28234546
   0.65456528  0.44444851  0.31371394
   0.32247859  0.55556578  0.34148666
   0.64816560  0.66666732  0.36574907
  -0.01209127  0.77776953  0.39704081
   0.65589276  0.88888754  0.42484070
Direct configuration=     3
   0.66666700  0.06252458  0.22396452
   0.72106504  0.26877136  0.04985596
   0.04209706  0.39785422  0.08211236
   0.05485427  0.60208526  0.13305181
   0.37522535  0.73124813  0.16533445
   0.38807847  0.93547792  0.21641117
   0.66666700  0.06252458  0.47396452
   0.66666700  0.27080942  0.27603573
  -0.05474270  0.39785513  0.28359017
  -0.04189105  0.60208545  0.33466647
   0.27847697  0.73124832  0.36694764
   0.29123288  0.93547883  0.41788610
   0.03948894 -0.00007108  0.22803619
   0.35709206  0.10933289  0.24816846
   0.02591831  0.22399947  0.02643472
   0.33333300  0.33333300  0.04166663
   0.68944232  0.44260380  0.08106400
   0.35889106  0.55741694  0.10980998
   0.70577528  0.66666610  0.14455457
   0.02294319  0.77591134  0.16444017
   0.69224651  0.89072522  0.19312942
   0.00000000  0.00000000  0.45833338
   0.33333300  0.11276663  0.48652503
  -0.02375987  0.22400038  0.25183129
   0.29384389  0.33340421  0.27196397
   0.64108694  0.44260845  0.30687036
   0.31038943  0.55742174  0.33555974
   0.62755956  0.66666767  0.35544565
  -0.02555798  0.77591614  0.39019014
   0.64389290  0.89072988  0.41893666
Direct configuration=     4
   0.66666700  0.06252458  0.22396452
   0.72809053  0.26982575  0.05229045
   0.04404579  0.39663134  0.08400664
   0.06277287  0.60332517  0.13572188
   0.37682370  0.72999095  0.16739060
   0.40241316  0.93678392  0.22178818
   0.66666700  0.06252458  0.47396452
   0.66666700  0.27080942  0.27603573
  -0.06973900  0.39651027  0.27801592
  -0.04346431  0.60332157  0.33260815
   0.27058568  0.72998668  0.36427839
   0.28898504  0.93668241  0.41559634
   0.05695343  0.00018667  0.23637788
   0.36641712  0.10793071  0.25305466
   0.04289647  0.22483851  0.03310945
   0.33333300  0.33333300  0.04166663
   0.68854704  0.44305941  0.08117753
   0.35853017  0.55701019  0.10911394
   0.71722891  0.66667810  0.15028408
   0.02085338  0.77633776  0.16391035
   0.69100285  0.89037988  0.19232089
   0.00000000  0.00000000  0.45833338
   0.33333300  0.11276663  0.48652503
  -0.02305268  0.22394296  0.25312623
   0.28337709  0.33337925  0.26660576
   0.64215506  0.44294140  0.30767110
   0.31242328  0.55701136  0.33607008
   0.61608900  0.66667717  0.34971946
  -0.02516813  0.77633373  0.39090665
   0.64488519  0.89028273  0.41887319
Direct configuration=     5
   0.66666700  0.06252458  0.22396452
   0.73390981  0.27069912  0.05430696
   0.04565995  0.39561842  0.08557568
   0.06933191  0.60435220  0.13793352
   0.37814762  0.72894962  0.16909372
   0.41428671  0.93786570  0.22624200
   0.66666700  0.06252458  0.47396452
   0.66666700  0.27080942  0.27603573
  -0.08216057  0.39539631  0.27339873
  -0.04476745  0.60434546  0.33090323
   0.26404925  0.72894165  0.36206744
   0.28712313  0.93767935  0.41369971
   0.07141941  0.00040016  0.24328737
   0.37414116  0.10676928  0.25710194
   0.05695962  0.22553350  0.03863820
   0.33333300  0.33333300  0.04166663
   0.68780547  0.44343680  0.08127156
   0.35823124  0.55667328  0.10853740
   0.72671605  0.66668804  0.15502988
   0.01912237  0.77669096  0.16347149
   0.68997272  0.89009383  0.19165118
   0.00000000  0.00000000  0.45833338
   0.33333300  0.11276663  0.48652503
  -0.02246690  0.22389540  0.25419885
   0.27470735  0.33335858  0.26216750
   0.64303980  0.44321718  0.30833435
   0.31410793  0.55667143  0.33649279
   0.60658784  0.66668505  0.34497640
  -0.02484522  0.77667962  0.39150014
   0.64570710  0.88991235  0.41882061
Direct configuration=     6
   0.66666700  0.06252458  0.22396452
   0.73059362  0.27102721  0.05326032
   0.04043210  0.39564226  0.08352343
   0.06648190  0.60425381  0.13570044
   0.37226700  0.72907137  0.16693994
   0.42257204  0.93877877  0.22850147
   0.66666700  0.06252458  0.47396452
   0.66666700  0.27080942  0.27603573
  -0.09083618  0.39441342  0.27090681
  -0.03886822  0.60424885  0.33307402
   0.26685798  0.72906657  0.36427287
   0.29289133  0.93767675  0.41605076
   0.07743920  0.00137931  0.24578033
   0.37516726  0.10647962  0.25741863
   0.06393893  0.22528570  0.04119559
   0.33333300  0.33333300  0.04166663
   0.68693366  0.44381210  0.08091145
   0.35909037  0.55665562  0.10844650
   0.72225179  0.66668078  0.15279486
   0.01800793  0.77669807  0.16342705
   0.68974020  0.89004183  0.19113527
   0.00000000  0.00000000  0.45833338
   0.33333300  0.11276663  0.48652503
  -0.02046171  0.22397264  0.25523162
   0.27772990  0.33324713  0.26385528
   0.64208068  0.44324875  0.30849304
   0.31532918  0.55664729  0.33658865
   0.61103425  0.66667566  0.34720968
  -0.02577085  0.77668204  0.39155460
   0.64694767  0.88951140  0.41917739
Direct configuration=     7
   0.66666700  0.06252458  0.22396452
   0.72727565  0.27135548  0.05221312
   0.03520145  0.39566612  0.08147008
   0.06363037  0.60415536  0.13346616
   0.36638323  0.72919318  0.16478501
   0.43086181  0.93969233  0.23076216
   0.66666700  0.06252458  0.47396452
   0.66666700  0.27080942  0.27603573
  -0.09951644  0.39343000  0.26841357
  -0.03296584  0.60415218  0.33524598
   0.26966822  0.72919156  0.36647949
   0.29866261  0.93767414  0.41840306
   0.08346222  0.00235897  0.24827462
   0.37619390  0.10618980  0.25773549
   0.07092197  0.22503778  0.04375435
   0.33333300  0.33333300  0.04166663
   0.68606138  0.44418760  0.08055115
   0.35994995  0.55663796  0.10835556
   0.71778513  0.66667351  0.15055866
   0.01689289  0.77670519  0.16338258
   0.68950756  0.88998979  0.19061908
   0.00000000  0.00000000  0.45833338
   0.33333300  0.11276663  0.48652503
  -0.01845544  0.22404992  0.25626495
   0.28075408  0.33313562  0.26554397
   0.64112106  0.44328034  0.30865181
   0.31655109  0.55662313  0.33668456
   0.61548303  0.66666626  0.34944416
  -0.02669698  0.77668447  0.39160910
   0.64818890  0.88911022  0.41953436
Direct configuration=     8
   0.66666700  0.06252458  0.22396452
   0.72845356  0.27128367  0.05312196
   0.03050929  0.39614203  0.08105311
   0.06475371  0.60401221  0.13291664
   0.36328657  0.72933478  0.16430544
   0.43897277  0.94000303  0.23356243
   0.66666700  0.06252458  0.47396452
   0.66666700  0.27080942  0.27603573
  -0.10786468  0.39314251  0.26550874
  -0.02993180  0.60400833  0.33569654
   0.26859638  0.72932753  0.36705831
   0.30389209  0.93716295  0.41938251
   0.09009453  0.00309777  0.25117556
   0.37436191  0.10621037  0.25633232
   0.07365896  0.22443719  0.04529563
   0.33333300  0.33333300  0.04166663
   0.68744705  0.44396564  0.08164608
   0.36508722  0.55691383  0.10970378
   0.71585222  0.66667578  0.14959142
   0.01685431  0.77645263  0.16456736
   0.69530736  0.89056161  0.19233193
   0.00000000  0.00000000  0.45833338
   0.33333300  0.11276663  0.48652503
  -0.01749444  0.22452669  0.25604066
   0.28213768  0.33316296  0.26657429
   0.63491686  0.44281933  0.30675569
   0.31653231  0.55688469  0.33546940
   0.61740298  0.66665937  0.35041097
  -0.03177940  0.77641378  0.39028857
   0.64689566  0.88934536  0.41833929
Direct configuration=     9
   0.66666700  0.06252458  0.22396452
   0.72939519  0.27122627  0.05384850
   0.02675830  0.39652248  0.08071978
   0.06565173  0.60389777  0.13247735
   0.36081105  0.72944798  0.16392206
   0.44545679  0.94025140  0.23580102
   0.66666700  0.06252458  0.47396452
   0.66666700  0.27080942  0.27603573
  -0.11453839  0.39291268  0.26318657
  -0.02750635  0.60389332  0.33605672
   0.26773953  0.72943623  0.36752103
   0.30807261  0.93675430  0.42016549
   0.09539651  0.00368838  0.25349463
   0.37289738  0.10622681  0.25521061
   0.07584696  0.22395708  0.04652776
   0.33333300  0.33333300  0.04166663
   0.68855478  0.44378820  0.08252138
   0.36919404  0.55713438  0.11078156
   0.71430702  0.66667760  0.14881820
   0.01682346  0.77625074  0.16551450
   0.69994380  0.89101873  0.19370121
   0.00000000  0.00000000  0.45833338
   0.33333300  0.11276663  0.48652503
  -0.01672620  0.22490782  0.25586136
   0.28324376  0.33318482  0.26739795
   0.62995714  0.44245079  0.30523991
   0.31651730  0.55709379  0.33449798
   0.61893781  0.66665386  0.35118385
  -0.03584237  0.77619739  0.38923292
   0.64586183  0.88953334  0.41738394
Direct configuration=    10
   0.66666700  0.06252458  0.22396452
   0.73161908  0.27138129  0.05404988
   0.01866741  0.39627230  0.07934479
   0.06873041  0.60433065  0.13247391
   0.35691734  0.72897235  0.16358504
   0.44579022  0.94059689  0.23542633
   0.66666700  0.06252458  0.47396452
   0.66666700  0.27080942  0.27603573
  -0.11530835  0.39281417  0.26361465
  -0.02357997  0.60434022  0.33639571
   0.26464446  0.72897088  0.36751670
   0.31762654  0.93685619  0.42262508
   0.10103637  0.00367037  0.25586847
   0.36962707  0.10626147  0.25315015
   0.07792080  0.22323700  0.04848313
   0.33333300  0.33333300  0.04166663
   0.68646172  0.44399234  0.08296080
   0.37472839  0.55717793  0.11176649
   0.71553063  0.66669048  0.14943718
   0.01541232  0.77619847  0.16660458
   0.70659730  0.89150756  0.19520852
   0.00000000  0.00000000  0.45833338
   0.33333300  0.11276663  0.48652503
  -0.01320660  0.22515999  0.25715810
   0.28291773  0.33336101  0.26760874
   0.62404832  0.44224783  0.30373935
   0.31782147  0.55716696  0.33336934
   0.61770046  0.66667004  0.35056738
  -0.04131730  0.77617065  0.38828701
   0.64736712  0.88941421  0.41680316
Direct configuration=    11
   0.66666700  0.06252458  0.22396452
   0.73567912  0.27166430  0.05441753
   0.00389635  0.39581556  0.07683456
   0.07435099  0.60512094  0.13246763
   0.34980881  0.72810400  0.16296977
   0.44639895  0.94122763  0.23474229
   0.66666700  0.06252458  0.47396452
   0.66666700  0.27080942  0.27603573
  -0.11671404  0.39263432  0.26439617
  -0.01641180  0.60515611  0.33701458
   0.25899396  0.72812132  0.36750880
   0.33506861  0.93704219  0.42711542
   0.11133274  0.00363748  0.26020226
   0.36365665  0.10632476  0.24938848
   0.08170690  0.22192240  0.05205294
   0.33333300  0.33333300  0.04166663
   0.68264054  0.44436502  0.08376302
   0.38483215  0.55725744  0.11356463
   0.71776451  0.66671400  0.15056722
   0.01283609  0.77610306  0.16859468
   0.71874420  0.89239997  0.19796034
   0.00000000  0.00000000  0.45833338
   0.33333300  0.11276663  0.48652503
  -0.00678107  0.22562037  0.25952547
   0.28232251  0.33368267  0.26799355
   0.61326092  0.44187729  0.30099985
   0.32020242  0.55730054  0.33130885
   0.61544151  0.66669958  0.34944192
  -0.05131257  0.77612184  0.38656013
   0.65011525  0.88919673  0.41574286
Direct configuration=    12
   0.66666700  0.06252458  0.22396452
   0.73727838  0.27165547  0.05465966
  -0.00159257  0.39553201  0.07538107
   0.07505653  0.60519655  0.13110528
   0.34417099  0.72808937  0.16183244
   0.44461942  0.94119094  0.23280622
   0.66666700  0.06252458  0.47396452
   0.66666700  0.27080942  0.27603573
  -0.11556374  0.39283209  0.26635419
  -0.01063751  0.60520536  0.33821400
   0.25820806  0.72808313  0.36883022
   0.34383789  0.93724148  0.43031255
   0.11285570  0.00326253  0.26049248
   0.36180315  0.10606886  0.24847373
   0.08592198  0.22146017  0.05473087
   0.33333300  0.33333300  0.04166663
   0.67898126  0.44473929  0.08396896
   0.38933309  0.55744292  0.11452640
   0.71488485  0.66669879  0.14916023
   0.01200456  0.77592755  0.16944531
   0.72437313  0.89301537  0.19944289
   0.00000000  0.00000000  0.45833338
   0.33333300  0.11276663  0.48652503
  -0.00429631  0.22595150  0.26072508
   0.28267910  0.33378092  0.26857269
   0.60692481  0.44157430  0.29909884
   0.32117704  0.55745120  0.33053483
   0.61823803  0.66670056  0.35082832
  -0.05595878  0.77591307  0.38552490
   0.65306095  0.88892213  0.41531190
Direct configuration=    13
   0.66666700  0.06252458  0.22396452
   0.74102362  0.27163478  0.05522670
  -0.01444685  0.39486797  0.07197719
   0.07670882  0.60537362  0.12791484
   0.33096801  0.72805512  0.15916899
   0.44045201  0.94110502  0.22827222
   0.66666700  0.06252458  0.47396452
   0.66666700  0.27080942  0.27603573
  -0.11286991  0.39329525  0.27093960
   0.00288506  0.60532070  0.34102287
   0.25636760  0.72799371  0.37192479
   0.36437428  0.93770818  0.43779977
   0.11642226  0.00238446  0.26117214
   0.35746252  0.10546959  0.24633151
   0.09579310  0.22037767  0.06100221
   0.33333300  0.33333300  0.04166663
   0.67041176  0.44561580  0.08445125
   0.39987366  0.55787729  0.11677874
   0.70814110  0.66666318  0.14586527
   0.01005724  0.77551653  0.17143735
   0.73755526  0.89445655  0.20291480
   0.00000000  0.00000000  0.45833338
   0.33333300  0.11276663  0.48652503
   0.00152264  0.22672696  0.26353439
   0.28351419  0.33401102  0.26992894
   0.59208652  0.44086475  0.29464694
   0.32345945  0.55780402  0.32872220
   0.62478707  0.66670285  0.35407505
  -0.06683953  0.77542415  0.38310056
   0.65995938  0.88827905  0.41430266
Direct configuration=    14
   0.66666700  0.06252458  0.22396452
   0.74151791  0.27163205  0.05530154
  -0.01614335  0.39478033  0.07152795
   0.07692688  0.60539699  0.12749377
   0.32922549  0.72805060  0.15881747
   0.43990200  0.94109368  0.22767382
   0.66666700  0.06252458  0.47396452
   0.66666700  0.27080942  0.27603573
  -0.11251438  0.39335638  0.27154478
   0.00466976  0.60533593  0.34139359
   0.25612470  0.72798191  0.37233321
   0.36708465  0.93776978  0.43878793
   0.11689297  0.00226857  0.26126184
   0.35688965  0.10539050  0.24604878
   0.09709589  0.22023480  0.06182990
   0.33333300  0.33333300  0.04166663
   0.66928077  0.44573148  0.08451491
   0.40126480  0.55793462  0.11707600
   0.70725106  0.66665848  0.14543041
   0.00980024  0.77546228  0.17170026
   0.73929503  0.89464675  0.20337302
   0.00000000  0.00000000  0.45833338
   0.33333300  0.11276663  0.48652503
   0.00229062  0.22682930  0.26390517
   0.28362441  0.33404139  0.27010794
   0.59012818  0.44077111  0.29405938
   0.32376068  0.55785058  0.32848297
   0.62565141  0.66670315  0.35450355
  -0.06827556  0.77535963  0.38278059
   0.66086982  0.88819418  0.41416946
Direct configuration=    15
   0.66666700  0.06252458  0.22396452
   0.74311454  0.27148769  0.05671611
  -0.02295485  0.39477654  0.06985915
   0.08021020  0.60544045  0.12742495
   0.32427001  0.72794778  0.15813057
   0.44205046  0.94060611  0.22735920
   0.66666700  0.06252458  0.47396452
   0.66666700  0.27080942  0.27603573
  -0.11552332  0.39375995  0.27129319
   0.00908486  0.60540426  0.34186290
   0.25308709  0.72789418  0.37253279
   0.37489713  0.93761927  0.44120323
   0.11673935  0.00172365  0.26079469
   0.35603055  0.10483711  0.24622050
   0.10279522  0.21975948  0.06475584
   0.33333300  0.33333300  0.04166663
   0.66998909  0.44522903  0.08620613
   0.40555785  0.55810569  0.11807893
   0.70578738  0.66667492  0.14467044
   0.00952355  0.77529053  0.17282955
   0.74640097  0.89531771  0.20527272
   0.00000000  0.00000000  0.45833338
   0.33333300  0.11276663  0.48652503
   0.00318110  0.22725179  0.26466705
   0.28279787  0.33414035  0.27039897
   0.58299517  0.44076801  0.29243024
   0.32389436  0.55806860  0.32724468
   0.62710688  0.66667454  0.35527794
  -0.07212035  0.77524675  0.38198090
   0.66087572  0.88863201  0.41281083
Direct configuration=    16
   0.66666700  0.06252458  0.22396452
   0.74360647  0.27144321  0.05715195
  -0.02505355  0.39477537  0.06934497
   0.08122182  0.60545384  0.12740375
   0.32274317  0.72791610  0.15791894
   0.44271243  0.94045588  0.22726226
   0.66666700  0.06252458  0.47396452
   0.66666700  0.27080942  0.27603573
  -0.11645040  0.39388429  0.27121568
   0.01044520  0.60542532  0.34200749
   0.25215117  0.72786715  0.37259428
   0.37730424  0.93757290  0.44194741
   0.11669202  0.00155576  0.26065076
   0.35576585  0.10466661  0.24627341
   0.10455124  0.21961303  0.06565735
   0.33333300  0.33333300  0.04166663
   0.67020733  0.44507422  0.08672721
   0.40688058  0.55815840  0.11838794
   0.70533640  0.66667998  0.14443628
   0.00943830  0.77523762  0.17317749
   0.74859038  0.89552443  0.20585804
   0.00000000  0.00000000  0.45833338
   0.33333300  0.11276663  0.48652503
   0.00345547  0.22738196  0.26490179
   0.28254320  0.33417084  0.27048864
   0.58079742  0.44076705  0.29192828
   0.32393554  0.55813577  0.32686315
   0.62755532  0.66666573  0.35551654
  -0.07330497  0.77521197  0.38173450
   0.66087754  0.88876691  0.41239223
Direct configuration=    17
   0.66666700  0.06252458  0.22396452
   0.74316075  0.27147653  0.05764291
  -0.02796262  0.39471592  0.06879109
   0.08345811  0.60565960  0.12779200
   0.32222172  0.72772345  0.15840069
   0.44474597  0.94061329  0.22721802
   0.66666700  0.06252458  0.47396452
   0.66666700  0.27080942  0.27603573
  -0.11894256  0.39362247  0.27113955
   0.01116270  0.60561584  0.34163018
   0.24977996  0.72763849  0.37216675
   0.38116833  0.93766974  0.44290097
   0.11709007  0.00133433  0.26079045
   0.35471930  0.10436884  0.24629624
   0.10712594  0.21935050  0.06696935
   0.33333300  0.33333300  0.04166663
   0.67071272  0.44477924  0.08683353
   0.40892882  0.55808180  0.11876149
   0.70560944  0.66668614  0.14457167
   0.00892174  0.77532956  0.17356317
   0.75163342  0.89542119  0.20607473
   0.00000000  0.00000000  0.45833338
   0.33333300  0.11276663  0.48652503
   0.00508682  0.22725596  0.26628201
   0.28058948  0.33428797  0.27005674
   0.57649349  0.44110339  0.29125200
   0.32446590  0.55806182  0.32647196
   0.62730941  0.66668637  0.35537903
  -0.07539293  0.77528485  0.38134167
   0.66160169  0.88892772  0.41272754
Direct configuration=    18
   0.66666700  0.06252458  0.22396452
   0.74290928  0.27149532  0.05791989
  -0.02960383  0.39468238  0.06847861
   0.08471974  0.60577569  0.12801104
   0.32192753  0.72761476  0.15867248
   0.44589322  0.94070209  0.22719306
   0.66666700  0.06252458  0.47396452
   0.66666700  0.27080942  0.27603573
  -0.12034856  0.39347476  0.27109660
   0.01156749  0.60572332  0.34141731
   0.24844221  0.72750948  0.37192555
   0.38334832  0.93772437  0.44343893
   0.11731464  0.00120941  0.26086927
   0.35412887  0.10420084  0.24630913
   0.10857849  0.21920239  0.06770954
   0.33333300  0.33333300  0.04166663
   0.67099785  0.44461282  0.08689350
   0.41008437  0.55803858  0.11897224
   0.70576349  0.66668961  0.14464805
   0.00863032  0.77538143  0.17378076
   0.75335020  0.89536294  0.20619698
   0.00000000  0.00000000  0.45833338
   0.33333300  0.11276663  0.48652503
   0.00600718  0.22718487  0.26706069
   0.27948725  0.33435405  0.26981308
   0.57406536  0.44129314  0.29087046
   0.32476511  0.55802010  0.32625127
   0.62717067  0.66669801  0.35530145
  -0.07657089  0.77532598  0.38112004
   0.66201024  0.88901845  0.41291671
Direct configuration=    19
   0.66666700  0.06252458  0.22396452
   0.74383605  0.27128899  0.05895015
  -0.03056236  0.39461626  0.06812702
   0.08516963  0.60572011  0.12784115
   0.32122021  0.72772086  0.15872698
   0.44850060  0.94075955  0.22735377
   0.66666700  0.06252458  0.47396452
   0.66666700  0.27080942  0.27603573
  -0.12252786  0.39338934  0.27143645
   0.01235547  0.60564745  0.34140830
   0.24783087  0.72760259  0.37200932
   0.38447910  0.93780563  0.44370909
   0.11783494  0.00133055  0.26113719
   0.35187316  0.10414034  0.24535994
   0.10891213  0.21915983  0.06842065
   0.33333300  0.33333300  0.04166663
   0.67025376  0.44446068  0.08675180
   0.41137866  0.55796855  0.11927043
   0.70326295  0.66667317  0.14340739
   0.00872497  0.77543310  0.17416418
   0.75530645  0.89515473  0.20636502
   0.00000000  0.00000000  0.45833338
   0.33333300  0.11276663  0.48652503
   0.00749091  0.22695078  0.26813623
   0.27753257  0.33435242  0.26944750
   0.57102406  0.44150291  0.29003256
   0.32488190  0.55795106  0.32599645
   0.62965795  0.66670109  0.35653096
  -0.07788521  0.77537788  0.38079674
   0.66371453  0.88910501  0.41349436
Direct configuration=    20
   0.66666700  0.06252458  0.22396452
   0.74460103  0.27111868  0.05980055
  -0.03135354  0.39456168  0.06783682
   0.08554097  0.60567424  0.12770092
   0.32063637  0.72780845  0.15877195
   0.45065279  0.94080698  0.22748643
   0.66666700  0.06252458  0.47396452
   0.66666700  0.27080942  0.27603573
  -0.12432669  0.39331883  0.27171698
   0.01300588  0.60558482  0.34140086
   0.24732626  0.72767945  0.37207846
   0.38541246  0.93787271  0.44393208
   0.11826440  0.00143054  0.26135834
   0.35001125  0.10409040  0.24457647
   0.10918752  0.21912469  0.06900761
   0.33333300  0.33333300  0.04166663
   0.66963957  0.44433510  0.08663483
   0.41244698  0.55791075  0.11951657
   0.70119897  0.66665960  0.14238332
   0.00880309  0.77547576  0.17448066
   0.75692118  0.89498287  0.20650372
   0.00000000  0.00000000  0.45833338
   0.33333300  0.11276663  0.48652503
   0.00871561  0.22675755  0.26902400
   0.27591914  0.33435108  0.26914575
   0.56851372  0.44167606  0.28934094
   0.32497829  0.55789408  0.32578613
   0.63171100  0.66670363  0.35754583
  -0.07897008  0.77542072  0.38052988
   0.66512128  0.88917646  0.41397115
