  30  30   1   0
  0.6327519E+02  0.4192584E-09  0.3117458E-08  0.1677034E-08  0.5000000E-15
  1.000000000000000E-004
  CAR 
 Tetradymite Slab                        
     10.99470210    -26.23965625  301     -0.62463863      1.00000000
    -26.240  0.0000E+00  0.0000E+00
    -26.116  0.0000E+00  0.0000E+00
    -25.991  0.0000E+00  0.0000E+00
    -25.867 -0.3657E-28 -0.4539E-29
    -25.743 -0.6045E-24 -0.7503E-25
    -25.619 -0.4618E-20 -0.5733E-21
    -25.495 -0.1631E-16 -0.2025E-17
    -25.371 -0.2587E-13 -0.3213E-14
    -25.247 -0.1932E-10 -0.2401E-11
    -25.123 -0.6648E-08 -0.8276E-09
    -24.999 -0.1049E-05 -0.1310E-06
    -24.874 -0.7517E-04 -0.9460E-05
    -24.750 -0.2405E-02 -0.3079E-03
    -24.626 -0.3276E-01 -0.4374E-02
    -24.502 -0.1622E+00 -0.2450E-01
    -24.378 -0.1352E-01 -0.2618E-01
    -24.254  0.1793E+01  0.1963E+00
    -24.130  0.4706E+01  0.7804E+00
    -24.006  0.5602E+01  0.1476E+01
    -23.881  0.3561E+01  0.1918E+01
    -23.757  0.1558E+01  0.2111E+01
    -23.633  0.2598E+01  0.2433E+01
    -23.509  0.4992E+01  0.3053E+01
    -23.385  0.7223E+01  0.3949E+01
    -23.261  0.8646E+01  0.5022E+01
    -23.137  0.6424E+01  0.5820E+01
    -23.013  0.1885E+01  0.6054E+01
    -22.889 -0.2029E+00  0.6028E+01
    -22.764 -0.1954E+00  0.6004E+01
    -22.640 -0.3186E-01  0.6000E+01
    -22.516 -0.2028E-02  0.6000E+01
    -22.392 -0.5641E-04  0.6000E+01
    -22.268 -0.7084E-06  0.6000E+01
    -22.144 -0.4069E-08  0.6000E+01
    -22.020 -0.1075E-10  0.6000E+01
    -21.896 -0.1304E-13  0.6000E+01
    -21.772  0.0000E+00  0.6000E+01
    -21.647  0.0000E+00  0.6000E+01
    -21.523  0.0000E+00  0.6000E+01
    -21.399  0.0000E+00  0.6000E+01
    -21.275  0.0000E+00  0.6000E+01
    -21.151  0.0000E+00  0.6000E+01
    -21.027  0.0000E+00  0.6000E+01
    -20.903  0.0000E+00  0.6000E+01
    -20.779  0.0000E+00  0.6000E+01
    -20.655  0.0000E+00  0.6000E+01
    -20.530  0.0000E+00  0.6000E+01
    -20.406  0.0000E+00  0.6000E+01
    -20.282  0.0000E+00  0.6000E+01
    -20.158  0.0000E+00  0.6000E+01
    -20.034  0.0000E+00  0.6000E+01
    -19.910  0.0000E+00  0.6000E+01
    -19.786  0.0000E+00  0.6000E+01
    -19.662  0.0000E+00  0.6000E+01
    -19.537  0.0000E+00  0.6000E+01
    -19.413  0.0000E+00  0.6000E+01
    -19.289  0.0000E+00  0.6000E+01
    -19.165  0.0000E+00  0.6000E+01
    -19.041  0.0000E+00  0.6000E+01
    -18.917  0.0000E+00  0.6000E+01
    -18.793  0.0000E+00  0.6000E+01
    -18.669  0.0000E+00  0.6000E+01
    -18.545  0.0000E+00  0.6000E+01
    -18.420  0.0000E+00  0.6000E+01
    -18.296  0.0000E+00  0.6000E+01
    -18.172  0.0000E+00  0.6000E+01
    -18.048  0.0000E+00  0.6000E+01
    -17.924  0.0000E+00  0.6000E+01
    -17.800  0.0000E+00  0.6000E+01
    -17.676  0.0000E+00  0.6000E+01
    -17.552  0.0000E+00  0.6000E+01
    -17.428  0.0000E+00  0.6000E+01
    -17.303  0.0000E+00  0.6000E+01
    -17.179  0.0000E+00  0.6000E+01
    -17.055  0.0000E+00  0.6000E+01
    -16.931  0.0000E+00  0.6000E+01
    -16.807  0.0000E+00  0.6000E+01
    -16.683  0.0000E+00  0.6000E+01
    -16.559 -0.3916E-32  0.6000E+01
    -16.435 -0.1042E-27  0.6000E+01
    -16.310 -0.1224E-23  0.6000E+01
    -16.186 -0.6636E-20  0.6000E+01
    -16.062 -0.1662E-16  0.6000E+01
    -15.938 -0.1860E-13  0.6000E+01
    -15.814 -0.9833E-11  0.6000E+01
    -15.690 -0.2384E-08  0.6000E+01
    -15.566 -0.2632E-06  0.6000E+01
    -15.442 -0.1304E-04  0.6000E+01
    -15.318 -0.2810E-03  0.6000E+01
    -15.193 -0.2413E-02  0.6000E+01
    -15.069 -0.5443E-02  0.5999E+01
    -14.945  0.1842E-01  0.6001E+01
    -14.821  0.8802E-01  0.6012E+01
    -14.697  0.1286E+00  0.6028E+01
    -14.573  0.1523E+00  0.6047E+01
    -14.449  0.2739E+00  0.6081E+01
    -14.325  0.4119E+00  0.6132E+01
    -14.201  0.4177E+00  0.6184E+01
    -14.076  0.3107E+00  0.6223E+01
    -13.952  0.2631E+00  0.6255E+01
    -13.828  0.3880E+00  0.6303E+01
    -13.704  0.5669E+00  0.6374E+01
    -13.580  0.6465E+00  0.6454E+01
    -13.456  0.6653E+00  0.6537E+01
    -13.332  0.7468E+00  0.6629E+01
    -13.208  0.8211E+00  0.6731E+01
    -13.084  0.7676E+00  0.6826E+01
    -12.959  0.6835E+00  0.6911E+01
    -12.835  0.8778E+00  0.7020E+01
    -12.711  0.1221E+01  0.7172E+01
    -12.587  0.1214E+01  0.7322E+01
    -12.463  0.9049E+00  0.7435E+01
    -12.339  0.7172E+00  0.7524E+01
    -12.215  0.6371E+00  0.7603E+01
    -12.091  0.6075E+00  0.7678E+01
    -11.966  0.5076E+00  0.7741E+01
    -11.842  0.2584E+00  0.7773E+01
    -11.718  0.9851E-01  0.7785E+01
    -11.594  0.6885E-01  0.7794E+01
    -11.470  0.2961E-01  0.7798E+01
    -11.346  0.9028E-01  0.7809E+01
    -11.222  0.2965E+00  0.7846E+01
    -11.098  0.4315E+00  0.7899E+01
    -10.974  0.5454E+00  0.7967E+01
    -10.849  0.6957E+00  0.8053E+01
    -10.725  0.6452E+00  0.8133E+01
    -10.601  0.6278E+00  0.8211E+01
    -10.477  0.7126E+00  0.8300E+01
    -10.353  0.6634E+00  0.8382E+01
    -10.229  0.5050E+00  0.8445E+01
    -10.105  0.5515E+00  0.8513E+01
     -9.981  0.8389E+00  0.8617E+01
     -9.857  0.8354E+00  0.8721E+01
     -9.732  0.5387E+00  0.8788E+01
     -9.608  0.4613E+00  0.8845E+01
     -9.484  0.3953E+00  0.8894E+01
     -9.360  0.2252E+00  0.8922E+01
     -9.236  0.1631E+00  0.8942E+01
     -9.112  0.1907E+00  0.8966E+01
     -8.988  0.1929E+00  0.8990E+01
     -8.864  0.8790E-01  0.9001E+01
     -8.740  0.1855E-02  0.9001E+01
     -8.615 -0.7425E-02  0.9000E+01
     -8.491 -0.1568E-02  0.9000E+01
     -8.367 -0.1183E-03  0.9000E+01
     -8.243 -0.3814E-05  0.9000E+01
     -8.119 -0.5514E-07  0.9000E+01
     -7.995 -0.3639E-09  0.9000E+01
     -7.871 -0.1103E-11  0.9000E+01
     -7.747 -0.1516E-14  0.9000E+01
     -7.622  0.0000E+00  0.9000E+01
     -7.498  0.0000E+00  0.9000E+01
     -7.374  0.0000E+00  0.9000E+01
     -7.250  0.0000E+00  0.9000E+01
     -7.126 -0.3565E-29  0.9000E+01
     -7.002 -0.5646E-25  0.9000E+01
     -6.878 -0.4116E-21  0.9000E+01
     -6.754 -0.1381E-17  0.9000E+01
     -6.630 -0.2069E-14  0.9000E+01
     -6.505 -0.1451E-11  0.9000E+01
     -6.381 -0.4666E-09  0.9000E+01
     -6.257 -0.6832E-07  0.9000E+01
     -6.133 -0.4516E-05  0.9000E+01
     -6.009 -0.1322E-03  0.9000E+01
     -5.885 -0.1620E-02  0.9000E+01
     -5.761 -0.6747E-02  0.8999E+01
     -5.637  0.5491E-02  0.9000E+01
     -5.513  0.8572E-01  0.9010E+01
     -5.388  0.1636E+00  0.9031E+01
     -5.264  0.1432E+00  0.9048E+01
     -5.140  0.1300E+00  0.9064E+01
     -5.016  0.1367E+00  0.9081E+01
     -4.892  0.2429E+00  0.9112E+01
     -4.768  0.6058E+00  0.9187E+01
     -4.644  0.9754E+00  0.9308E+01
     -4.520  0.1105E+01  0.9445E+01
     -4.395  0.1117E+01  0.9584E+01
     -4.271  0.1060E+01  0.9715E+01
     -4.147  0.9775E+00  0.9837E+01
     -4.023  0.9787E+00  0.9958E+01
     -3.899  0.1034E+01  0.1009E+02
     -3.775  0.1279E+01  0.1025E+02
     -3.651  0.1500E+01  0.1043E+02
     -3.527  0.1296E+01  0.1059E+02
     -3.403  0.1039E+01  0.1072E+02
     -3.278  0.1111E+01  0.1086E+02
     -3.154  0.1295E+01  0.1102E+02
     -3.030  0.1387E+01  0.1119E+02
     -2.906  0.1454E+01  0.1137E+02
     -2.782  0.1496E+01  0.1156E+02
     -2.658  0.1345E+01  0.1173E+02
     -2.534  0.1379E+01  0.1190E+02
     -2.410  0.1536E+01  0.1209E+02
     -2.286  0.1194E+01  0.1224E+02
     -2.161  0.8905E+00  0.1235E+02
     -2.037  0.9672E+00  0.1247E+02
     -1.913  0.9412E+00  0.1258E+02
     -1.789  0.9995E+00  0.1271E+02
     -1.665  0.1178E+01  0.1285E+02
     -1.541  0.1128E+01  0.1299E+02
     -1.417  0.1207E+01  0.1314E+02
     -1.293  0.1609E+01  0.1334E+02
     -1.169  0.1880E+01  0.1358E+02
     -1.044  0.2027E+01  0.1383E+02
     -0.920  0.1885E+01  0.1406E+02
     -0.796  0.1360E+01  0.1423E+02
     -0.672  0.1045E+01  0.1436E+02
     -0.548  0.7235E+00  0.1445E+02
     -0.424  0.4599E+00  0.1451E+02
     -0.300  0.6070E+00  0.1458E+02
     -0.176  0.9821E+00  0.1470E+02
     -0.051  0.1458E+01  0.1488E+02
      0.073  0.1860E+01  0.1512E+02
      0.197  0.2075E+01  0.1537E+02
      0.321  0.2181E+01  0.1564E+02
      0.445  0.2253E+01  0.1592E+02
      0.569  0.2379E+01  0.1622E+02
      0.693  0.2388E+01  0.1652E+02
      0.817  0.2217E+01  0.1679E+02
      0.941  0.1916E+01  0.1703E+02
      1.066  0.1550E+01  0.1722E+02
      1.190  0.1198E+01  0.1737E+02
      1.314  0.9098E+00  0.1748E+02
      1.438  0.7005E+00  0.1757E+02
      1.562  0.5634E+00  0.1764E+02
      1.686  0.4145E+00  0.1769E+02
      1.810  0.3173E+00  0.1773E+02
      1.934  0.3587E+00  0.1777E+02
      2.058  0.3883E+00  0.1782E+02
      2.183  0.4117E+00  0.1787E+02
      2.307  0.4916E+00  0.1793E+02
      2.431  0.5753E+00  0.1801E+02
      2.555  0.5644E+00  0.1808E+02
      2.679  0.3681E+00  0.1812E+02
      2.803  0.1340E+00  0.1814E+02
      2.927  0.4332E-01  0.1814E+02
      3.051  0.5472E-01  0.1815E+02
      3.175  0.8803E-01  0.1816E+02
      3.300  0.9535E-01  0.1817E+02
      3.424  0.8763E-01  0.1818E+02
      3.548  0.8518E-01  0.1819E+02
      3.672  0.6932E-01  0.1820E+02
      3.796  0.9216E-01  0.1821E+02
      3.920  0.1678E+00  0.1824E+02
      4.044  0.2336E+00  0.1826E+02
      4.168  0.2541E+00  0.1830E+02
      4.293  0.2666E+00  0.1833E+02
      4.417  0.3714E+00  0.1838E+02
      4.541  0.5593E+00  0.1844E+02
      4.665  0.7104E+00  0.1853E+02
      4.789  0.8345E+00  0.1864E+02
      4.913  0.9979E+00  0.1876E+02
      5.037  0.1112E+01  0.1890E+02
      5.161  0.1099E+01  0.1903E+02
      5.285  0.1144E+01  0.1918E+02
      5.410  0.1383E+01  0.1935E+02
      5.534  0.1540E+01  0.1954E+02
      5.658  0.1550E+01  0.1973E+02
      5.782  0.1510E+01  0.1992E+02
      5.906  0.1552E+01  0.2011E+02
      6.030  0.1720E+01  0.2033E+02
      6.154  0.1820E+01  0.2055E+02
      6.278  0.1834E+01  0.2078E+02
      6.402  0.1691E+01  0.2099E+02
      6.527  0.1525E+01  0.2118E+02
      6.651  0.1606E+01  0.2138E+02
      6.775  0.1756E+01  0.2160E+02
      6.899  0.1764E+01  0.2181E+02
      7.023  0.1710E+01  0.2203E+02
      7.147  0.1762E+01  0.2225E+02
      7.271  0.1930E+01  0.2249E+02
      7.395  0.2020E+01  0.2274E+02
      7.519  0.1944E+01  0.2298E+02
      7.644  0.1851E+01  0.2321E+02
      7.768  0.1865E+01  0.2344E+02
      7.892  0.1939E+01  0.2368E+02
      8.016  0.1942E+01  0.2392E+02
      8.140  0.1900E+01  0.2416E+02
      8.264  0.1905E+01  0.2439E+02
      8.388  0.1941E+01  0.2463E+02
      8.512  0.1986E+01  0.2488E+02
      8.637  0.2119E+01  0.2514E+02
      8.761  0.2026E+01  0.2539E+02
      8.885  0.1303E+01  0.2556E+02
      9.009  0.4096E+00  0.2561E+02
      9.133 -0.4795E-02  0.2561E+02
      9.257 -0.3808E-01  0.2560E+02
      9.381 -0.9440E-02  0.2560E+02
      9.505 -0.9612E-03  0.2560E+02
      9.629 -0.4640E-04  0.2560E+02
      9.754 -0.1100E-05  0.2560E+02
      9.878 -0.1290E-07  0.2560E+02
     10.002 -0.7426E-10  0.2560E+02
     10.126 -0.2072E-12  0.2560E+02
     10.250 -0.2659E-15  0.2560E+02
     10.374  0.0000E+00  0.2560E+02
     10.498  0.0000E+00  0.2560E+02
     10.622  0.0000E+00  0.2560E+02
     10.746  0.0000E+00  0.2560E+02
     10.871  0.0000E+00  0.2560E+02
     10.995  0.0000E+00  0.2560E+02
     10.99470210    -26.23965625  301     -0.62463863      1.00000000
    -26.240  0.0000E+00  0.0000E+00  0.0000E+00  0.0000E+00  0.0000E+00  0.0000E+00  0.0000E+00  0.0000E+00  0.0000E+00
    -26.116  0.0000E+00  0.0000E+00  0.0000E+00  0.0000E+00  0.0000E+00  0.0000E+00  0.0000E+00  0.0000E+00  0.0000E+00
    -25.991  0.0000E+00  0.0000E+00  0.0000E+00  0.0000E+00  0.0000E+00  0.0000E+00  0.0000E+00  0.0000E+00  0.0000E+00
    -25.867 -0.5017E-33 -0.6968E-33 -0.7917E-33 -0.2229E-32 -0.1003E-27 -0.3805E-28 -0.1350E-28 -0.2778E-28 -0.3285E-28
    -25.743 -0.8790E-29 -0.1261E-28 -0.1343E-28 -0.3748E-28 -0.1702E-23 -0.6597E-24 -0.2333E-24 -0.4975E-24 -0.5946E-24
    -25.619 -0.7095E-25 -0.1056E-24 -0.1051E-24 -0.2902E-24 -0.1331E-19 -0.5301E-20 -0.1874E-20 -0.4117E-20 -0.4974E-20
    -25.495 -0.2636E-21 -0.4088E-21 -0.3798E-21 -0.1034E-20 -0.4794E-16 -0.1974E-16 -0.7028E-17 -0.1574E-16 -0.1921E-16
    -25.371 -0.4385E-18 -0.7138E-18 -0.6155E-18 -0.1642E-17 -0.7721E-13 -0.3327E-13 -0.1206E-13 -0.2707E-13 -0.3335E-13
    -25.247 -0.3410E-15 -0.5822E-15 -0.4687E-15 -0.1221E-14 -0.5821E-10 -0.2631E-10 -0.9827E-11 -0.2184E-10 -0.2711E-10
    -25.123 -0.1217E-12 -0.2192E-12 -0.1644E-12 -0.4146E-12 -0.2007E-07 -0.9661E-08 -0.3795E-08 -0.8127E-08 -0.1013E-07
    -24.999 -0.1977E-10 -0.3766E-10 -0.2646E-10 -0.6374E-10 -0.3140E-05 -0.1630E-05 -0.6895E-06 -0.1385E-05 -0.1727E-05
    -24.874 -0.1452E-08 -0.2921E-08 -0.1939E-08 -0.4386E-08 -0.2203E-03 -0.1252E-03 -0.5854E-04 -0.1072E-03 -0.1328E-03
    -24.750 -0.4723E-07 -0.9990E-07 -0.6363E-07 -0.1318E-06 -0.6756E-02 -0.4277E-02 -0.2277E-02 -0.3698E-02 -0.4503E-02
    -24.626 -0.6476E-06 -0.1423E-05 -0.8926E-06 -0.1622E-05 -0.8500E-01 -0.6152E-01 -0.3861E-01 -0.5410E-01 -0.6377E-01
    -24.502 -0.3116E-05 -0.6937E-05 -0.4507E-05 -0.6418E-05 -0.3451E+00 -0.3086E+00 -0.2470E+00 -0.2828E+00 -0.3111E+00
    -24.378  0.1161E-05  0.3413E-05  0.6498E-06  0.8297E-05  0.4240E+00  0.1045E+00 -0.1750E+00  0.2385E-01  0.1386E+00
    -24.254  0.3968E-04  0.8938E-04  0.5637E-04  0.8853E-04  0.4734E+01  0.3931E+01  0.2862E+01  0.3513E+01  0.3988E+01
    -24.130  0.8109E-04  0.1683E-03  0.1221E-03  0.1444E-03  0.7676E+01  0.7748E+01  0.7493E+01  0.7564E+01  0.7706E+01
    -24.006  0.5235E-04  0.9414E-04  0.8254E-04  0.7355E-04  0.3758E+01  0.4557E+01  0.5648E+01  0.4989E+01  0.4517E+01
    -23.881  0.6118E-05  0.5106E-05  0.1062E-04  0.3071E-05  0.7161E-01  0.3239E+00  0.8544E+00  0.5846E+00  0.3431E+00
    -23.757 -0.3875E-05 -0.7195E-05 -0.5726E-05 -0.5700E-05 -0.2975E+00 -0.3407E+00 -0.3769E+00 -0.3478E+00 -0.3335E+00
    -23.633 -0.1972E-05 -0.1607E-05 -0.1946E-05 -0.1442E-05 -0.5852E-01 -0.7802E-01 -0.1160E+00 -0.9624E-01 -0.7914E-01
    -23.509  0.1116E-05  0.4434E-07  0.2036E-06  0.2512E-06 -0.4043E-02 -0.5867E-02 -0.1039E-01 -0.8284E-02 -0.6202E-02
    -23.385  0.1320E-04  0.9281E-06  0.4168E-05  0.3040E-05 -0.3004E-04 -0.6042E-04 -0.7313E-04 -0.9047E-04 -0.6565E-04
    -23.261  0.2216E-04  0.1381E-05  0.7110E-05  0.4706E-05  0.1150E-03  0.1764E-03  0.4659E-03  0.3269E-03  0.1969E-03
    -23.137  0.1216E-04  0.8297E-06  0.3866E-05  0.2305E-05  0.5281E-04  0.9651E-04  0.2293E-03  0.1744E-03  0.9151E-04
    -23.013  0.1092E-05  0.1711E-06  0.2769E-06  0.9266E-07  0.3764E-05  0.1213E-04  0.7102E-05  0.1057E-04  0.3130E-05
    -22.889 -0.8195E-06 -0.3491E-07 -0.2795E-06 -0.1733E-06 -0.3438E-05 -0.5846E-05 -0.1764E-04 -0.1297E-04 -0.6563E-05
    -22.764 -0.2324E-06 -0.2158E-07 -0.6968E-07 -0.3931E-07 -0.1062E-05 -0.2106E-05 -0.3788E-05 -0.3081E-05 -0.1591E-05
    -22.640 -0.2392E-07 -0.3329E-08 -0.6122E-08 -0.3324E-08 -0.1280E-06 -0.2543E-06 -0.2977E-06 -0.2554E-06 -0.1617E-06
    -22.516 -0.1144E-08 -0.2093E-09 -0.2405E-09 -0.1296E-09 -0.7130E-08 -0.1356E-07 -0.1047E-07 -0.9158E-08 -0.8184E-08
    -22.392 -0.2656E-10 -0.5788E-11 -0.4536E-11 -0.2487E-11 -0.1858E-09 -0.3351E-09 -0.1761E-09 -0.1515E-09 -0.2048E-09
    -22.268 -0.2979E-12 -0.7216E-13 -0.4225E-13 -0.2394E-13 -0.2253E-11 -0.3869E-11 -0.1467E-11 -0.1194E-11 -0.2452E-11
    -22.144 -0.1590E-14 -0.4097E-15 -0.1950E-15 -0.1148E-15 -0.1266E-13 -0.2086E-13 -0.6164E-14 -0.4598E-14 -0.1375E-13
    -22.020 -0.3989E-17 -0.1065E-17 -0.4410E-18 -0.2697E-18 -0.3291E-16 -0.5230E-16 -0.1302E-16 -0.8764E-17 -0.3571E-16
    -21.896 -0.4570E-20 -0.1270E-20 -0.4347E-21 -0.2782E-21 -0.3909E-19 -0.5999E-19 -0.1104E-19 -0.5764E-20 -0.4239E-19
    -21.772  0.0000E+00  0.0000E+00  0.0000E+00  0.0000E+00  0.0000E+00  0.0000E+00  0.0000E+00  0.0000E+00  0.0000E+00
    -21.647  0.0000E+00  0.0000E+00  0.0000E+00  0.0000E+00  0.0000E+00  0.0000E+00  0.0000E+00  0.0000E+00  0.0000E+00
    -21.523  0.0000E+00  0.0000E+00  0.0000E+00  0.0000E+00  0.0000E+00  0.0000E+00  0.0000E+00  0.0000E+00  0.0000E+00
    -21.399  0.0000E+00  0.0000E+00  0.0000E+00  0.0000E+00  0.0000E+00  0.0000E+00  0.0000E+00  0.0000E+00  0.0000E+00
    -21.275  0.0000E+00  0.0000E+00  0.0000E+00  0.0000E+00  0.0000E+00  0.0000E+00  0.0000E+00  0.0000E+00  0.0000E+00
    -21.151  0.0000E+00  0.0000E+00  0.0000E+00  0.0000E+00  0.0000E+00  0.0000E+00  0.0000E+00  0.0000E+00  0.0000E+00
    -21.027  0.0000E+00  0.0000E+00  0.0000E+00  0.0000E+00  0.0000E+00  0.0000E+00  0.0000E+00  0.0000E+00  0.0000E+00
    -20.903  0.0000E+00  0.0000E+00  0.0000E+00  0.0000E+00  0.0000E+00  0.0000E+00  0.0000E+00  0.0000E+00  0.0000E+00
    -20.779  0.0000E+00  0.0000E+00  0.0000E+00  0.0000E+00  0.0000E+00  0.0000E+00  0.0000E+00  0.0000E+00  0.0000E+00
    -20.655  0.0000E+00  0.0000E+00  0.0000E+00  0.0000E+00  0.0000E+00  0.0000E+00  0.0000E+00  0.0000E+00  0.0000E+00
    -20.530  0.0000E+00  0.0000E+00  0.0000E+00  0.0000E+00  0.0000E+00  0.0000E+00  0.0000E+00  0.0000E+00  0.0000E+00
    -20.406  0.0000E+00  0.0000E+00  0.0000E+00  0.0000E+00  0.0000E+00  0.0000E+00  0.0000E+00  0.0000E+00  0.0000E+00
    -20.282  0.0000E+00  0.0000E+00  0.0000E+00  0.0000E+00  0.0000E+00  0.0000E+00  0.0000E+00  0.0000E+00  0.0000E+00
    -20.158  0.0000E+00  0.0000E+00  0.0000E+00  0.0000E+00  0.0000E+00  0.0000E+00  0.0000E+00  0.0000E+00  0.0000E+00
    -20.034  0.0000E+00  0.0000E+00  0.0000E+00  0.0000E+00  0.0000E+00  0.0000E+00  0.0000E+00  0.0000E+00  0.0000E+00
    -19.910  0.0000E+00  0.0000E+00  0.0000E+00  0.0000E+00  0.0000E+00  0.0000E+00  0.0000E+00  0.0000E+00  0.0000E+00
    -19.786  0.0000E+00  0.0000E+00  0.0000E+00  0.0000E+00  0.0000E+00  0.0000E+00  0.0000E+00  0.0000E+00  0.0000E+00
    -19.662  0.0000E+00  0.0000E+00  0.0000E+00  0.0000E+00  0.0000E+00  0.0000E+00  0.0000E+00  0.0000E+00  0.0000E+00
    -19.537  0.0000E+00  0.0000E+00  0.0000E+00  0.0000E+00  0.0000E+00  0.0000E+00  0.0000E+00  0.0000E+00  0.0000E+00
    -19.413  0.0000E+00  0.0000E+00  0.0000E+00  0.0000E+00  0.0000E+00  0.0000E+00  0.0000E+00  0.0000E+00  0.0000E+00
    -19.289  0.0000E+00  0.0000E+00  0.0000E+00  0.0000E+00  0.0000E+00  0.0000E+00  0.0000E+00  0.0000E+00  0.0000E+00
    -19.165  0.0000E+00  0.0000E+00  0.0000E+00  0.0000E+00  0.0000E+00  0.0000E+00  0.0000E+00  0.0000E+00  0.0000E+00
    -19.041  0.0000E+00  0.0000E+00  0.0000E+00  0.0000E+00  0.0000E+00  0.0000E+00  0.0000E+00  0.0000E+00  0.0000E+00
    -18.917  0.0000E+00  0.0000E+00  0.0000E+00  0.0000E+00  0.0000E+00  0.0000E+00  0.0000E+00  0.0000E+00  0.0000E+00
    -18.793  0.0000E+00  0.0000E+00  0.0000E+00  0.0000E+00  0.0000E+00  0.0000E+00  0.0000E+00  0.0000E+00  0.0000E+00
    -18.669  0.0000E+00  0.0000E+00  0.0000E+00  0.0000E+00  0.0000E+00  0.0000E+00  0.0000E+00  0.0000E+00  0.0000E+00
    -18.545  0.0000E+00  0.0000E+00  0.0000E+00  0.0000E+00  0.0000E+00  0.0000E+00  0.0000E+00  0.0000E+00  0.0000E+00
    -18.420  0.0000E+00  0.0000E+00  0.0000E+00  0.0000E+00  0.0000E+00  0.0000E+00  0.0000E+00  0.0000E+00  0.0000E+00
    -18.296  0.0000E+00  0.0000E+00  0.0000E+00  0.0000E+00  0.0000E+00  0.0000E+00  0.0000E+00  0.0000E+00  0.0000E+00
    -18.172  0.0000E+00  0.0000E+00  0.0000E+00  0.0000E+00  0.0000E+00  0.0000E+00  0.0000E+00  0.0000E+00  0.0000E+00
    -18.048  0.0000E+00  0.0000E+00  0.0000E+00  0.0000E+00  0.0000E+00  0.0000E+00  0.0000E+00  0.0000E+00  0.0000E+00
    -17.924  0.0000E+00  0.0000E+00  0.0000E+00  0.0000E+00  0.0000E+00  0.0000E+00  0.0000E+00  0.0000E+00  0.0000E+00
    -17.800  0.0000E+00  0.0000E+00  0.0000E+00  0.0000E+00  0.0000E+00  0.0000E+00  0.0000E+00  0.0000E+00  0.0000E+00
    -17.676  0.0000E+00  0.0000E+00  0.0000E+00  0.0000E+00  0.0000E+00  0.0000E+00  0.0000E+00  0.0000E+00  0.0000E+00
    -17.552  0.0000E+00  0.0000E+00  0.0000E+00  0.0000E+00  0.0000E+00  0.0000E+00  0.0000E+00  0.0000E+00  0.0000E+00
    -17.428  0.0000E+00  0.0000E+00  0.0000E+00  0.0000E+00  0.0000E+00  0.0000E+00  0.0000E+00  0.0000E+00  0.0000E+00
    -17.303  0.0000E+00  0.0000E+00  0.0000E+00  0.0000E+00  0.0000E+00  0.0000E+00  0.0000E+00  0.0000E+00  0.0000E+00
    -17.179  0.0000E+00  0.0000E+00  0.0000E+00  0.0000E+00  0.0000E+00  0.0000E+00  0.0000E+00  0.0000E+00  0.0000E+00
    -17.055  0.0000E+00  0.0000E+00  0.0000E+00  0.0000E+00  0.0000E+00  0.0000E+00  0.0000E+00  0.0000E+00  0.0000E+00
    -16.931  0.0000E+00  0.0000E+00  0.0000E+00  0.0000E+00  0.0000E+00  0.0000E+00  0.0000E+00  0.0000E+00  0.0000E+00
    -16.807  0.0000E+00  0.0000E+00  0.0000E+00  0.0000E+00  0.0000E+00  0.0000E+00  0.0000E+00  0.0000E+00  0.0000E+00
    -16.683  0.0000E+00  0.0000E+00  0.0000E+00  0.0000E+00  0.0000E+00  0.0000E+00  0.0000E+00  0.0000E+00  0.0000E+00
    -16.559 -0.1155E-34 -0.1692E-36 -0.1869E-36 -0.6231E-37 -0.2234E-38 -0.6700E-38 -0.9660E-38 -0.4212E-37 -0.4459E-38
    -16.435 -0.3068E-30 -0.4487E-32 -0.4979E-32 -0.1695E-32 -0.7367E-34 -0.1819E-33 -0.2603E-33 -0.1116E-32 -0.1189E-33
    -16.310 -0.3601E-26 -0.5262E-28 -0.5847E-28 -0.2003E-28 -0.9134E-30 -0.2148E-29 -0.3067E-29 -0.1309E-28 -0.1397E-29
    -16.186 -0.1952E-22 -0.2850E-24 -0.3172E-24 -0.1095E-24 -0.5286E-26 -0.1173E-25 -0.1671E-25 -0.7090E-25 -0.7586E-26
    -16.062 -0.4887E-19 -0.7128E-21 -0.7950E-21 -0.2770E-21 -0.1428E-22 -0.2965E-22 -0.4208E-22 -0.1773E-21 -0.1902E-22
    -15.938 -0.5463E-16 -0.7959E-18 -0.8900E-18 -0.3137E-18 -0.1744E-19 -0.3355E-19 -0.4741E-19 -0.1979E-18 -0.2131E-19
    -15.814 -0.2886E-13 -0.4197E-15 -0.4709E-15 -0.1683E-15 -0.1015E-16 -0.1797E-16 -0.2528E-16 -0.1044E-15 -0.1129E-16
    -15.690 -0.6991E-11 -0.1015E-12 -0.1143E-12 -0.4153E-13 -0.2737E-14 -0.4427E-14 -0.6193E-14 -0.2522E-13 -0.2744E-14
    -15.566 -0.7727E-09 -0.1118E-10 -0.1267E-10 -0.4693E-11 -0.3395E-12 -0.4984E-12 -0.6930E-12 -0.2778E-11 -0.3043E-12
    -15.442 -0.3891E-07 -0.5565E-09 -0.6393E-09 -0.2425E-09 -0.1924E-10 -0.2535E-10 -0.3521E-10 -0.1385E-09 -0.1536E-10
    -15.318 -0.9489E-06 -0.1276E-07 -0.1555E-07 -0.6044E-08 -0.5054E-09 -0.5767E-09 -0.8321E-09 -0.3221E-08 -0.3697E-09
    -15.193 -0.1646E-04 -0.1709E-06 -0.2641E-06 -0.1030E-06 -0.7295E-08 -0.6267E-08 -0.1175E-07 -0.4633E-07 -0.5956E-08
    -15.069 -0.3200E-03 -0.2485E-05 -0.5030E-05 -0.1939E-05 -0.1035E-06 -0.5609E-07 -0.1802E-06 -0.7431E-06 -0.1074E-06
    -14.945 -0.4062E-02 -0.2960E-04 -0.6386E-04 -0.2520E-04 -0.1447E-05 -0.6438E-06 -0.2241E-05 -0.9050E-05 -0.1349E-05
    -14.821 -0.1929E-01 -0.1374E-03 -0.3069E-03 -0.1313E-03 -0.1049E-04 -0.4182E-05 -0.1156E-04 -0.4217E-04 -0.6490E-05
    -14.697  0.5322E-02  0.6403E-04  0.5790E-04 -0.4973E-04 -0.2384E-04 -0.6977E-05 -0.3403E-05  0.1803E-04  0.1112E-05
    -14.573  0.2326E+00  0.1737E-02  0.3637E-02  0.1375E-02  0.6220E-04  0.3165E-04  0.1243E-03  0.5263E-03  0.7646E-04
    -14.449  0.5242E+00  0.3696E-02  0.8450E-02  0.3902E-02  0.3910E-03  0.1487E-03  0.3431E-03  0.1130E-02  0.1786E-03
    -14.325  0.5020E+00  0.3167E-02  0.8545E-02  0.5164E-02  0.8187E-03  0.2831E-03  0.4406E-03  0.9942E-03  0.1855E-03
    -14.201  0.3380E+00  0.1595E-02  0.6434E-02  0.5602E-02  0.1210E-02  0.4059E-03  0.4631E-03  0.5584E-03  0.1535E-03
    -14.076  0.2474E+00  0.7860E-03  0.5219E-02  0.5658E-02  0.1366E-02  0.4589E-03  0.4606E-03  0.3472E-03  0.1398E-03
    -13.952  0.2061E+00  0.2436E-03  0.4913E-02  0.6373E-02  0.1644E-02  0.5573E-03  0.5119E-03  0.2586E-03  0.1575E-03
    -13.828  0.2026E+00  0.1369E-03  0.5178E-02  0.7283E-02  0.1936E-02  0.6884E-03  0.5855E-03  0.2647E-03  0.1877E-03
    -13.704  0.1531E+00  0.1487E-02  0.4342E-02  0.6797E-02  0.1985E-02  0.1013E-02  0.5837E-03  0.4825E-03  0.2485E-03
    -13.580  0.1600E+00  0.3750E-02  0.5420E-02  0.9751E-02  0.3092E-02  0.1890E-02  0.8858E-03  0.9676E-03  0.4411E-03
    -13.456  0.1203E+00  0.4119E-02  0.5224E-02  0.1075E-01  0.3513E-02  0.2077E-02  0.9904E-03  0.1059E-02  0.4820E-03
    -13.332  0.8997E-01  0.3831E-02  0.5083E-02  0.1059E-01  0.3570E-02  0.2203E-02  0.9498E-03  0.1024E-02  0.5022E-03
    -13.208  0.1573E+00  0.5432E-02  0.6785E-02  0.1063E-01  0.3768E-02  0.3052E-02  0.9018E-03  0.1324E-02  0.6549E-03
    -13.084  0.1524E+00  0.1032E-01  0.7525E-02  0.1055E-01  0.4201E-02  0.4393E-02  0.9549E-03  0.2033E-02  0.8445E-03
    -12.959  0.8498E-01  0.2467E-01  0.7211E-02  0.8523E-02  0.4552E-02  0.7260E-02  0.1070E-02  0.3800E-02  0.1135E-02
    -12.835  0.7229E-01  0.3666E-01  0.7597E-02  0.6726E-02  0.4776E-02  0.9765E-02  0.1123E-02  0.5257E-02  0.1402E-02
    -12.711  0.6870E-01  0.2142E-01  0.5068E-02  0.4473E-02  0.2972E-02  0.5887E-02  0.6776E-03  0.3097E-02  0.8659E-03
    -12.587  0.3587E-01  0.2711E-02  0.1044E-02  0.9418E-03  0.5006E-03  0.8808E-03  0.9705E-04  0.3738E-03  0.1409E-03
    -12.463  0.3742E-01  0.9982E-04  0.8751E-04 -0.1155E-03 -0.1500E-04  0.1165E-03 -0.3787E-04 -0.1187E-03  0.1095E-04
    -12.339  0.4932E-01  0.1136E-02  0.3122E-03  0.9724E-04  0.1328E-03  0.4066E-03 -0.3266E-05  0.2754E-04  0.5427E-04
    -12.215  0.4677E-01  0.5999E-03  0.2298E-03  0.1334E-03  0.9855E-04  0.2369E-03  0.9496E-05  0.2408E-04  0.3796E-04
    -12.091  0.4484E-01  0.1694E-03  0.1188E-03  0.6387E-04  0.3749E-04  0.8790E-04  0.1009E-04  0.4002E-05  0.1982E-04
    -11.966  0.4079E-01  0.2971E-04  0.7019E-04  0.2828E-04  0.1004E-04  0.2558E-04  0.9704E-05  0.3739E-05  0.1008E-04
    -11.842  0.3158E-01 -0.6467E-05  0.3387E-04  0.2155E-04  0.4527E-05  0.1590E-05  0.8327E-05  0.5203E-05  0.4426E-05
    -11.718  0.2032E-01 -0.2495E-04  0.1180E-04  0.2033E-04  0.5467E-05 -0.4511E-05  0.5495E-05  0.3278E-05  0.2421E-05
    -11.594 -0.7748E-02 -0.1637E-03 -0.3945E-06  0.2506E-05 -0.6474E-05 -0.2633E-04 -0.4421E-07 -0.4279E-05  0.1205E-05
    -11.470 -0.9520E-02 -0.4332E-04 -0.1697E-04 -0.4010E-04 -0.1546E-04 -0.1269E-04 -0.4683E-05 -0.3147E-05 -0.9289E-06
    -11.346  0.2957E+00  0.2041E-02  0.4077E-04  0.6127E-04  0.1174E-03  0.3080E-03  0.2978E-04  0.7552E-04  0.3873E-05
    -11.222  0.8509E+00  0.5102E-02  0.2793E-03  0.5812E-03  0.4374E-03  0.8279E-03  0.1258E-03  0.2099E-03  0.2613E-04
    -11.098  0.1027E+01  0.4661E-02  0.6474E-03  0.1434E-02  0.7049E-03  0.8804E-03  0.2263E-03  0.2404E-03  0.6029E-04
    -10.974  0.9002E+00  0.2488E-02  0.1017E-02  0.2093E-02  0.8309E-03  0.6620E-03  0.2878E-03  0.2122E-03  0.8965E-04
    -10.849  0.8775E+00  0.1617E-02  0.1381E-02  0.2371E-02  0.8934E-03  0.5732E-03  0.3182E-03  0.2153E-03  0.1067E-03
    -10.725  0.1043E+01  0.1438E-02  0.1925E-02  0.2451E-02  0.8736E-03  0.4536E-03  0.3059E-03  0.1818E-03  0.1042E-03
    -10.601  0.1310E+01  0.2411E-02  0.2709E-02  0.2295E-02  0.7524E-03  0.3574E-03  0.2221E-03  0.1084E-03  0.7780E-04
    -10.477  0.1074E+01  0.2854E-02  0.2430E-02  0.1677E-02  0.5665E-03  0.3226E-03  0.9693E-04  0.4438E-04  0.3919E-04
    -10.353  0.3403E+00  0.1304E-02  0.9426E-03  0.8063E-03  0.3638E-03  0.2222E-03  0.1147E-04  0.1101E-04  0.1053E-04
    -10.229 -0.9230E-02  0.1769E-03  0.1609E-03  0.4021E-03  0.2434E-03  0.1361E-03 -0.1347E-05  0.5827E-05  0.6407E-05
    -10.105  0.7751E-02  0.8281E-04  0.2167E-03  0.4341E-03  0.2435E-03  0.1325E-03  0.7783E-05  0.6794E-05  0.1433E-04
     -9.981  0.4936E-01  0.2237E-03  0.4098E-03  0.4842E-03  0.2694E-03  0.1699E-03  0.2135E-04  0.1957E-04  0.2855E-04
     -9.857  0.6815E-01  0.2553E-03  0.4432E-03  0.4724E-03  0.2654E-03  0.1737E-03  0.5745E-04  0.3896E-04  0.5932E-04
     -9.732  0.8582E-01  0.1997E-03  0.3681E-03  0.3669E-03  0.1908E-03  0.1183E-03  0.1218E-03  0.6210E-04  0.1146E-03
     -9.608  0.8624E-01  0.2976E-03  0.4673E-03  0.2832E-03  0.1367E-03  0.1183E-03  0.1318E-03  0.7302E-04  0.1281E-03
     -9.484  0.4245E-01  0.2845E-03  0.4197E-03  0.1807E-03  0.9133E-04  0.1098E-03  0.5259E-04  0.4230E-04  0.5731E-04
     -9.360  0.1151E-01  0.1640E-03  0.3583E-03  0.1291E-03  0.5302E-04  0.8117E-04 -0.2336E-07  0.1688E-04  0.1011E-04
     -9.236  0.1798E-01  0.2047E-03  0.7143E-03  0.2507E-03  0.7223E-04  0.1294E-03 -0.3045E-05  0.2683E-04  0.2096E-04
     -9.112  0.2948E-01  0.2675E-03  0.1206E-02  0.4136E-03  0.8744E-04  0.1875E-03  0.1539E-06  0.4413E-04  0.4304E-04
     -8.988  0.2888E-01  0.2349E-03  0.1271E-02  0.4282E-03  0.6963E-04  0.1784E-03  0.4207E-06  0.4506E-04  0.4719E-04
     -8.864  0.1211E-01  0.9411E-04  0.5538E-03  0.1851E-03  0.2626E-04  0.7424E-04  0.1245E-06  0.1936E-04  0.2076E-04
     -8.740 -0.5952E-04 -0.1412E-05  0.2505E-05  0.5254E-06 -0.8093E-06 -0.4495E-06 -0.1929E-07  0.2810E-07  0.1347E-06
     -8.615 -0.1053E-02 -0.8455E-05 -0.4689E-04 -0.1576E-04 -0.2455E-05 -0.6483E-05 -0.1609E-07 -0.1657E-05 -0.1747E-05
     -8.491 -0.2048E-03 -0.1620E-05 -0.9291E-05 -0.3113E-05 -0.4570E-06 -0.1260E-05 -0.2584E-08 -0.3268E-06 -0.3474E-06
     -8.367 -0.1449E-04 -0.1138E-06 -0.6645E-06 -0.2223E-06 -0.3157E-07 -0.8915E-07 -0.1628E-09 -0.2333E-07 -0.2488E-07
     -8.243 -0.4393E-06 -0.3436E-08 -0.2031E-07 -0.6785E-08 -0.9410E-09 -0.2705E-08 -0.4538E-11 -0.7121E-09 -0.7606E-09
     -8.119 -0.5981E-08 -0.4669E-10 -0.2782E-09 -0.9289E-10 -0.1266E-10 -0.3686E-10 -0.5824E-13 -0.9754E-11 -0.1042E-10
     -7.995 -0.3721E-10 -0.2903E-12 -0.1740E-11 -0.5805E-12 -0.7813E-13 -0.2297E-12 -0.3494E-15 -0.6101E-13 -0.6512E-13
     -7.871 -0.1065E-12 -0.8319E-15 -0.5002E-14 -0.1669E-14 -0.2226E-15 -0.6587E-15 -0.9827E-18 -0.1755E-15 -0.1871E-15
     -7.747 -0.1372E-15 -0.1071E-17 -0.6479E-17 -0.2160E-17 -0.2843E-18 -0.8498E-18 -0.1220E-20 -0.2275E-18 -0.2421E-18
     -7.622  0.0000E+00  0.0000E+00  0.0000E+00  0.0000E+00  0.0000E+00  0.0000E+00  0.0000E+00  0.0000E+00  0.0000E+00
     -7.498  0.0000E+00  0.0000E+00  0.0000E+00  0.0000E+00  0.0000E+00  0.0000E+00  0.0000E+00  0.0000E+00  0.0000E+00
     -7.374  0.0000E+00  0.0000E+00  0.0000E+00  0.0000E+00  0.0000E+00  0.0000E+00  0.0000E+00  0.0000E+00  0.0000E+00
     -7.250  0.0000E+00  0.0000E+00  0.0000E+00  0.0000E+00  0.0000E+00  0.0000E+00  0.0000E+00  0.0000E+00  0.0000E+00
     -7.126 -0.2067E-33 -0.1803E-32 -0.4523E-32 -0.1313E-31 -0.1208E-33 -0.7523E-34 -0.1319E-33 -0.6543E-34 -0.8359E-34
     -7.002 -0.3265E-29 -0.2850E-28 -0.7162E-28 -0.2079E-27 -0.1913E-29 -0.1190E-29 -0.2089E-29 -0.1037E-29 -0.1325E-29
     -6.878 -0.2371E-25 -0.2073E-24 -0.5221E-24 -0.1516E-23 -0.1395E-25 -0.8671E-26 -0.1523E-25 -0.7570E-26 -0.9667E-26