       N       E                     dE             d eps       ncg     rms          rms(c)
DAV:   1     0.177078316025E+04    0.17708E+04   -0.10278E+05 14336   0.642E+02
DAV:   2     0.136352832629E+02   -0.17571E+04   -0.17160E+04 17920   0.205E+02
DAV:   3    -0.119530879253E+03   -0.13317E+03   -0.13272E+03 15360   0.688E+01
DAV:   4    -0.122363817161E+03   -0.28329E+01   -0.28327E+01 25088   0.122E+01
DAV:   5    -0.122372633804E+03   -0.88166E-02   -0.88166E-02 16640   0.521E-01    0.125E+01
RMM:   6    -0.112802198738E+03    0.95704E+01   -0.13599E+01 14494   0.404E+00    0.978E+00
RMM:   7    -0.113015817129E+03   -0.21362E+00   -0.26782E+00 15928   0.253E+00    0.659E+00
RMM:   8    -0.111408356306E+03    0.16075E+01   -0.43609E-01 14941   0.763E-01    0.438E+00
RMM:   9    -0.110038621182E+03    0.13697E+01   -0.16757E-01 15522   0.629E-01    0.262E+00
RMM:  10    -0.109835501087E+03    0.20312E+00   -0.21670E-01 14745   0.547E-01    0.194E+00
RMM:  11    -0.109775513865E+03    0.59987E-01   -0.85848E-02 15316   0.457E-01    0.131E+00
RMM:  12    -0.109804059407E+03   -0.28546E-01   -0.24263E-02 15558   0.227E-01    0.160E+00
RMM:  13    -0.109751152487E+03    0.52907E-01   -0.41548E-03 15792   0.990E-02    0.335E-01
RMM:  14    -0.109757829060E+03   -0.66766E-02   -0.32699E-03 14711   0.695E-02    0.299E-01
RMM:  15    -0.109760860318E+03   -0.30313E-02   -0.17663E-03 15204   0.542E-02    0.249E-01
RMM:  16    -0.109763071025E+03   -0.22107E-02   -0.13768E-03 15011   0.465E-02    0.105E-01
RMM:  17    -0.109766015959E+03   -0.29449E-02    0.23854E-04 14844   0.407E-02    0.119E-01
RMM:  18    -0.109764589202E+03    0.14268E-02    0.53049E-02 15483   0.207E-02    0.825E-02
RMM:  19    -0.109845884607E+03   -0.81295E-01   -0.44551E-02 15023   0.237E-02    0.685E-01
RMM:  20    -0.109939970436E+03   -0.94086E-01   -0.31415E+00 14121   0.285E-01    0.992E-01
RMM:  21    -0.110125882177E+03   -0.18591E+00   -0.43384E+00 13684   0.442E-01    0.123E+00
RMM:  22    -0.110068906025E+03    0.56976E-01   -0.76630E+00 15007   0.657E-01    0.847E-01
RMM:  23    -0.110064198588E+03    0.47074E-02   -0.43060E+00 14809   0.406E-01    0.910E-01
RMM:  24    -0.110020295475E+03    0.43903E-01   -0.83907E+00 15198   0.625E-01    0.746E-01
RMM:  25    -0.110172661296E+03   -0.15237E+00   -0.60382E+00 14699   0.420E-01    0.957E-01
RMM:  26    -0.110142434346E+03    0.30227E-01   -0.73795E+00 15325   0.548E-01    0.825E-01
RMM:  27    -0.110113888003E+03    0.28546E-01   -0.76609E+00 14692   0.543E-01    0.748E-01
RMM:  28    -0.109979257331E+03    0.13463E+00   -0.59961E+00 15262   0.442E-01    0.567E-01
RMM:  29    -0.109991300291E+03   -0.12043E-01   -0.54941E+00 14370   0.363E-01    0.468E-01
RMM:  30    -0.109859303171E+03    0.13200E+00   -0.38166E+00 14870   0.279E-01    0.296E-01
RMM:  31    -0.109940085408E+03   -0.80782E-01   -0.26374E+00 14920   0.175E-01    0.523E-01
RMM:  32    -0.109836224563E+03    0.10386E+00   -0.64649E+00 13449   0.412E-01    0.257E-01
RMM:  33    -0.109847781851E+03   -0.11557E-01   -0.24903E+00 13958   0.172E-01    0.449E-01
RMM:  34    -0.109864236336E+03   -0.16454E-01   -0.32038E+00 13152   0.269E-01    0.321E-01
RMM:  35    -0.109826960781E+03    0.37276E-01   -0.19183E+00 13519   0.166E-01    0.305E-01
RMM:  36    -0.109864765151E+03   -0.37804E-01   -0.29095E+00 13415   0.208E-01    0.526E-01
RMM:  37    -0.110016175295E+03   -0.15141E+00   -0.47897E+00 13275   0.360E-01    0.880E-01
RMM:  38    -0.109922089610E+03    0.94086E-01   -0.99748E+00 14019   0.683E-01    0.520E-01
RMM:  39    -0.110065795325E+03   -0.14371E+00   -0.47690E+00 14129   0.364E-01    0.782E-01
RMM:  40    -0.109831192822E+03    0.23460E+00   -0.11024E+01 13707   0.695E-01    0.292E-01
RMM:  41    -0.109865121666E+03   -0.33929E-01   -0.36671E+00 13892   0.234E-01    0.490E-01
RMM:  42    -0.109865875962E+03   -0.75430E-03   -0.47941E+00 13024   0.351E-01    0.496E-01
RMM:  43    -0.109977732597E+03   -0.11186E+00   -0.43650E+00 13300   0.329E-01    0.760E-01
RMM:  44    -0.109902023025E+03    0.75710E-01   -0.99959E+00 13966   0.646E-01    0.413E-01
RMM:  45    -0.109898942823E+03    0.30802E-02   -0.48842E+00 13325   0.315E-01    0.553E-01
RMM:  46    -0.109855055373E+03    0.43887E-01   -0.71338E+00 13264   0.470E-01    0.402E-01
RMM:  47    -0.109801833669E+03    0.53222E-01   -0.51110E+00 13320   0.323E-01    0.280E-01
RMM:  48    -0.109836069327E+03   -0.34236E-01   -0.22286E+00 13973   0.174E-01    0.323E-01
RMM:  49    -0.109879003693E+03   -0.42934E-01   -0.47601E+00 13774   0.290E-01    0.460E-01
RMM:  50    -0.109807491867E+03    0.71512E-01   -0.67077E+00 13173   0.421E-01    0.281E-01
RMM:  51    -0.109874267288E+03   -0.66775E-01   -0.24666E+00 14651   0.200E-01    0.533E-01
RMM:  52    -0.109840945510E+03    0.33322E-01   -0.84404E+00 12806   0.521E-01    0.396E-01
RMM:  53    -0.109953874043E+03   -0.11293E+00   -0.43172E+00 13466   0.318E-01    0.475E-01
RMM:  54    -0.109871933899E+03    0.81940E-01   -0.72098E+00 12634   0.440E-01    0.249E-01
RMM:  55    -0.109815554735E+03    0.56379E-01   -0.28418E+00 13887   0.205E-01    0.299E-01
RMM:  56    -0.109819256878E+03   -0.37021E-02   -0.39954E+00 13289   0.272E-01    0.254E-01
RMM:  57    -0.109878798731E+03   -0.59542E-01   -0.35751E+00 13691   0.231E-01    0.417E-01
RMM:  58    -0.109893534911E+03   -0.14736E-01   -0.64707E+00 12854   0.405E-01    0.358E-01
RMM:  59    -0.109904191332E+03   -0.10656E-01   -0.42725E+00 13462   0.298E-01    0.457E-01
RMM:  60    -0.109853243961E+03    0.50947E-01   -0.60349E+00 12526   0.406E-01    0.339E-01
RMM:  61    -0.109858064678E+03   -0.48207E-02   -0.52454E+00 13914   0.325E-01    0.325E-01
RMM:  62    -0.109863399710E+03   -0.53350E-02   -0.44632E+00 13611   0.300E-01    0.405E-01
RMM:  63    -0.109877706527E+03   -0.14307E-01   -0.46591E+00 12313   0.336E-01    0.511E-01
RMM:  64    -0.109852306990E+03    0.25400E-01   -0.95416E+00 13415   0.549E-01    0.383E-01
RMM:  65    -0.109852983350E+03   -0.67636E-03   -0.50848E+00 13261   0.347E-01    0.424E-01
RMM:  66    -0.109851533787E+03    0.14496E-02   -0.68899E+00 14321   0.418E-01    0.364E-01
RMM:  67    -0.109874910666E+03   -0.23377E-01   -0.59771E+00 13436   0.362E-01    0.551E-01
RMM:  68    -0.109857691173E+03    0.17219E-01   -0.94060E+00 13112   0.559E-01    0.439E-01
RMM:  69    -0.109877811703E+03   -0.20121E-01   -0.64466E+00 13487   0.405E-01    0.438E-01
RMM:  70    -0.109806733910E+03    0.71078E-01   -0.59499E+00 12924   0.397E-01    0.204E-01
RMM:  71    -0.109844146528E+03   -0.37413E-01   -0.26286E+00 15806   0.188E-01    0.392E-01
RMM:  72    -0.109901243250E+03   -0.57097E-01   -0.59688E+00 13910   0.381E-01    0.508E-01
RMM:  73    -0.109949233900E+03   -0.47991E-01   -0.69137E+00 13134   0.461E-01    0.560E-01
RMM:  74    -0.109897472091E+03    0.51762E-01   -0.79535E+00 13466   0.517E-01    0.455E-01
RMM:  75    -0.109897151858E+03    0.32023E-03   -0.56666E+00 13266   0.394E-01    0.607E-01
RMM:  76    -0.109852267148E+03    0.44885E-01   -0.76309E+00 14077   0.533E-01    0.347E-01
RMM:  77    -0.109803704313E+03    0.48563E-01   -0.54679E+00 14169   0.342E-01    0.230E-01
RMM:  78    -0.109797569909E+03    0.61344E-02   -0.37054E+00 14343   0.233E-01    0.240E-01
RMM:  79    -0.109885511939E+03   -0.87942E-01   -0.33078E+00 13445   0.222E-01    0.484E-01
RMM:  80    -0.109822102429E+03    0.63410E-01   -0.67660E+00 12471   0.444E-01
   1 F= -.10982210E+03 E0= -.10982258E+03  d E =-.109822E+03
       N       E                     dE             d eps       ncg     rms          rms(c)
DAV:   1    -0.110226222664E+03   -0.34071E+00   -0.39761E+02 14336   0.276E+01    0.143E+00
RMM:   2    -0.111360537330E+03   -0.11343E+01   -0.10941E+01 14382   0.551E+00    0.180E+00
RMM:   3    -0.111437551824E+03   -0.77014E-01   -0.97994E-01 17443   0.186E+00    0.217E+00
RMM:   4    -0.111327085460E+03    0.11047E+00   -0.25788E-02 14487   0.284E-01    0.684E-01
RMM:   5    -0.111313302389E+03    0.13783E-01   -0.65077E-03 16542   0.137E-01    0.399E-01
RMM:   6    -0.111321089395E+03   -0.77870E-02   -0.29283E-03 14656   0.803E-02    0.543E-01
RMM:   7    -0.111313404812E+03    0.76846E-02   -0.24872E-03 14826   0.772E-02    0.304E-01
RMM:   8    -0.111313131279E+03    0.27353E-03   -0.24637E-03 14947   0.787E-02    0.221E-01
RMM:   9    -0.111311500573E+03    0.16307E-02   -0.77117E-04 16320   0.441E-02    0.883E-02
RMM:  10    -0.111311425254E+03    0.75319E-04   -0.11912E-04 15108   0.160E-02    0.585E-02
RMM:  11    -0.111311387251E+03    0.38003E-04   -0.11009E-04 14746   0.185E-02    0.200E-02
RMM:  12    -0.111311412271E+03   -0.25021E-04   -0.21105E-05 14872   0.111E-02    0.136E-02
RMM:  13    -0.111311435779E+03   -0.23507E-04    0.30189E-05 13764   0.436E-03    0.698E-03
RMM:  14    -0.111311462779E+03   -0.27000E-04    0.67777E-05 11855   0.285E-03    0.354E-03
RMM:  15    -0.111311492090E+03   -0.29311E-04    0.15599E-04 11559   0.207E-03    0.234E-03
RMM:  16    -0.111311493091E+03   -0.10016E-05    0.44851E-04 11216   0.147E-03    0.145E-03
RMM:  17    -0.111311387083E+03    0.10601E-03    0.17493E-03 10727   0.954E-04    0.205E-03
RMM:  18    -0.111311297280E+03    0.89803E-04    0.39763E-03  8307  -0.367E-05    0.301E-03
RMM:  19    -0.111311259490E+03    0.37790E-04    0.65893E-03  7543  -0.507E-04    0.381E-03
RMM:  20    -0.111309601951E+03    0.16575E-02    0.10898E-02  7385  -0.607E-04    0.237E-02
RMM:  21    -0.111309113180E+03    0.48877E-03    0.59656E-02  8978  -0.764E-03    0.143E-02
RMM:  22    -0.111309728189E+03   -0.61501E-03    0.29208E-02  7955  -0.395E-03    0.425E-02
RMM:  23    -0.111369250909E+03   -0.59523E-01   -0.11491E-01  9357   0.143E-02    0.160E-01
RMM:  24    -0.111368512607E+03    0.73830E-03   -0.10127E+00 11376   0.921E-02    0.267E-01
RMM:  25    -0.111371044592E+03   -0.25320E-02   -0.18404E+00 12244   0.159E-01    0.301E-01
RMM:  26    -0.111419290513E+03   -0.48246E-01   -0.23633E+00 13045   0.195E-01    0.453E-01
RMM:  27    -0.111582363422E+03   -0.16307E+00   -0.38325E+00 13202   0.295E-01    0.743E-01
RMM:  28    -0.111691946881E+03   -0.10958E+00   -0.70359E+00 14095   0.495E-01    0.103E+00
RMM:  29    -0.111573144460E+03    0.11880E+00   -0.10054E+01 14472   0.667E-01    0.625E-01
RMM:  30    -0.111363314240E+03    0.20983E+00   -0.76679E+00 14545   0.520E-01    0.253E-01
RMM:  31    -0.111393512100E+03   -0.30198E-01   -0.35825E+00 13321   0.235E-01    0.251E-01
RMM:  32    -0.111353160517E+03    0.40352E-01   -0.33151E+00 12957   0.222E-01    0.285E-01
RMM:  33    -0.111373269382E+03   -0.20109E-01   -0.39650E+00 12490   0.263E-01    0.218E-01
RMM:  34    -0.111552023469E+03   -0.17875E+00   -0.22601E+00 12852   0.163E-01    0.673E-01
RMM:  35    -0.111523060068E+03    0.28963E-01   -0.66395E+00 12916   0.505E-01    0.491E-01
RMM:  36    -0.111596807984E+03   -0.73748E-01   -0.44092E+00 14086   0.349E-01    0.584E-01
RMM:  37    -0.111463885291E+03    0.13292E+00   -0.70738E+00 13030   0.489E-01    0.511E-01
RMM:  38    -0.111471414643E+03   -0.75294E-02   -0.43708E+00 13603   0.357E-01    0.419E-01
RMM:  39    -0.111453157406E+03    0.18257E-01   -0.56639E+00 12582   0.383E-01    0.415E-01
RMM:  40    -0.111502053305E+03   -0.48896E-01   -0.57924E+00 12860   0.382E-01    0.370E-01
RMM:  41    -0.111380252495E+03    0.12180E+00   -0.55469E+00 13166   0.360E-01    0.374E-01
RMM:  42    -0.111483739141E+03   -0.10349E+00   -0.38862E+00 12891   0.297E-01    0.611E-01
RMM:  43    -0.111479817493E+03    0.39216E-02   -0.79176E+00 13133   0.544E-01    0.457E-01
RMM:  44    -0.111507955806E+03   -0.28138E-01   -0.59941E+00 13157   0.407E-01    0.636E-01
RMM:  45    -0.111427392373E+03    0.80563E-01   -0.10667E+01 13489   0.657E-01    0.415E-01
RMM:  46    -0.111555161753E+03   -0.12777E+00   -0.67485E+00 13335   0.421E-01    0.583E-01
RMM:  47    -0.111384822554E+03    0.17034E+00   -0.97621E+00 13077   0.593E-01    0.334E-01
RMM:  48    -0.111323483504E+03    0.61339E-01   -0.57096E+00 12935   0.345E-01    0.153E-01
RMM:  49    -0.111501528899E+03   -0.17805E+00   -0.27780E+00 13060   0.165E-01    0.476E-01
RMM:  50    -0.111446763467E+03    0.54765E-01   -0.56877E+00 12482   0.412E-01    0.369E-01
RMM:  51    -0.111530938469E+03   -0.84175E-01   -0.61536E+00 13496   0.377E-01    0.584E-01
RMM:  52    -0.111517222205E+03    0.13716E-01   -0.79511E+00 12507   0.538E-01    0.627E-01
RMM:  53    -0.111399686739E+03    0.11754E+00   -0.10174E+01 13305   0.631E-01    0.309E-01
RMM:  54    -0.111388591172E+03    0.11096E-01   -0.46555E+00 12946   0.302E-01    0.288E-01
RMM:  55    -0.111442334198E+03   -0.53743E-01   -0.45298E+00 12734   0.290E-01    0.451E-01
RMM:  56    -0.111375397871E+03    0.66936E-01   -0.61031E+00 12584   0.414E-01    0.322E-01
RMM:  57    -0.111364291348E+03    0.11107E-01   -0.55793E+00 13076   0.342E-01    0.278E-01
RMM:  58    -0.111438551667E+03   -0.74260E-01   -0.44975E+00 12534   0.284E-01    0.445E-01
RMM:  59    -0.111388260830E+03    0.50291E-01   -0.74246E+00 12990   0.450E-01    0.375E-01
RMM:  60    -0.111411276841E+03   -0.23016E-01   -0.51180E+00 13253   0.346E-01    0.396E-01
RMM:  61    -0.111455441581E+03   -0.44165E-01   -0.59171E+00 12464   0.384E-01    0.462E-01
RMM:  62    -0.111433192634E+03    0.22249E-01   -0.68081E+00 13092   0.440E-01    0.416E-01
RMM:  63    -0.111456987427E+03   -0.23795E-01   -0.66404E+00 13436   0.421E-01    0.490E-01
RMM:  64    -0.111402233663E+03    0.54754E-01   -0.69704E+00 12506   0.459E-01    0.277E-01
RMM:  65    -0.111422636363E+03   -0.20403E-01   -0.40509E+00 12814   0.266E-01    0.466E-01
RMM:  66    -0.111557692862E+03   -0.13506E+00   -0.61779E+00 12855   0.427E-01    0.579E-01
RMM:  67    -0.111412292050E+03    0.14540E+00   -0.76868E+00 14892   0.527E-01    0.310E-01
RMM:  68    -0.111375168632E+03    0.37123E-01   -0.49517E+00 13413   0.313E-01    0.298E-01
RMM:  69    -0.111510662687E+03   -0.13549E+00   -0.50230E+00 13824   0.306E-01    0.411E-01
RMM:  70    -0.111432420097E+03    0.78243E-01   -0.56434E+00 13606   0.386E-01    0.311E-01
RMM:  71    -0.111468162435E+03   -0.35742E-01   -0.49345E+00 14136   0.309E-01    0.491E-01
RMM:  72    -0.111421411885E+03    0.46751E-01   -0.82395E+00 14551   0.511E-01    0.471E-01
RMM:  73    -0.111419386069E+03    0.20258E-02   -0.72122E+00 13062   0.458E-01    0.390E-01
RMM:  74    -0.111412822086E+03    0.65640E-02   -0.67755E+00 13212   0.415E-01    0.384E-01
RMM:  75    -0.111406596970E+03    0.62251E-02   -0.70490E+00 13683   0.414E-01    0.415E-01
RMM:  76    -0.111393318500E+03    0.13278E-01   -0.58947E+00 12706   0.394E-01    0.220E-01
RMM:  77    -0.111402685807E+03   -0.93673E-02   -0.38406E+00 14031   0.236E-01    0.325E-01
RMM:  78    -0.111354904897E+03    0.47781E-01   -0.51367E+00 13642   0.328E-01    0.339E-01
RMM:  79    -0.111396994551E+03   -0.42090E-01   -0.56528E+00 11924   0.352E-01    0.261E-01
RMM:  80    -0.111373484588E+03    0.23510E-01   -0.51455E+00 13480   0.293E-01
   2 F= -.11137348E+03 E0= -.11137469E+03  d E =-.155138E+01
       N       E                     dE             d eps       ncg     rms          rms(c)
DAV:   1    -0.104982136105E+03    0.64149E+01   -0.29332E+03 14336   0.995E+01    0.335E+00
RMM:   2    -0.112172525841E+03   -0.71904E+01   -0.74768E+01 14352   0.148E+01    0.166E+00
RMM:   3    -0.112389214698E+03   -0.21669E+00   -0.34349E+00 16493   0.390E+00    0.204E+00
RMM:   4    -0.112287575339E+03    0.10164E+00   -0.43832E-01 15966   0.101E+00    0.125E+00
RMM:   5    -0.112280967268E+03    0.66081E-02   -0.35652E-02 15593   0.318E-01    0.106E+00
RMM:   6    -0.112275709147E+03    0.52581E-02   -0.21627E-02 14985   0.229E-01    0.818E-01
RMM:   7    -0.112256795792E+03    0.18913E-01   -0.17728E-02 15040   0.227E-01    0.298E-01
RMM:   8    -0.112253716961E+03    0.30788E-02   -0.51359E-03 16144   0.123E-01    0.167E-01
RMM:   9    -0.112253665899E+03    0.51063E-04   -0.74315E-04 15194   0.475E-02    0.124E-01
RMM:  10    -0.112253574832E+03    0.91067E-04   -0.63341E-04 14690   0.434E-02    0.535E-02
RMM:  11    -0.112253885214E+03   -0.31038E-03   -0.15749E-04 15060   0.317E-02    0.310E-02
RMM:  12    -0.112254075463E+03   -0.19025E-03    0.40003E-04 15942   0.152E-02    0.186E-02
RMM:  13    -0.112254309851E+03   -0.23439E-03    0.78857E-04 14126   0.995E-03    0.923E-03
RMM:  14    -0.112254302905E+03    0.69459E-05    0.11431E-03 13951   0.694E-03    0.657E-03
RMM:  15    -0.112253959260E+03    0.34365E-03    0.74063E-03 12507   0.261E-03    0.822E-03
RMM:  16    -0.112254109194E+03   -0.14993E-03    0.20864E-02 11125  -0.153E-03    0.690E-03
RMM:  17    -0.112252878805E+03    0.12304E-02    0.10133E-02 11938   0.117E-03    0.106E-02
RMM:  18    -0.112252766065E+03    0.11274E-03    0.22913E-02 10601  -0.117E-03    0.189E-02
RMM:  19    -0.112256934149E+03   -0.41681E-02    0.81156E-02  9861  -0.886E-03    0.370E-02
RMM:  20    -0.112254989646E+03    0.19445E-02   -0.79398E-02 10684   0.118E-02    0.807E-02
RMM:  21    -0.112274486596E+03   -0.19497E-01   -0.33617E-01 10886   0.382E-02    0.117E-01
RMM:  22    -0.112253023960E+03    0.21463E-01   -0.85799E-01 11241   0.710E-02    0.231E-02
RMM:  23    -0.112267189177E+03   -0.14165E-01   -0.79092E-02 10493   0.877E-03    0.113E-01
RMM:  24    -0.112347432896E+03   -0.80244E-01   -0.63466E-01 11544   0.592E-02    0.461E-01
RMM:  25    -0.112414243240E+03   -0.66810E-01   -0.12105E+00 12931   0.121E-01    0.489E-01
RMM:  26    -0.112330205565E+03    0.84038E-01   -0.36831E+00 13516   0.280E-01    0.314E-01
RMM:  27    -0.112343351489E+03   -0.13146E-01   -0.42963E+00 13510   0.277E-01    0.254E-01
RMM:  28    -0.112298210686E+03    0.45141E-01   -0.25597E+00 12847   0.195E-01    0.215E-01
RMM:  29    -0.112340667013E+03   -0.42456E-01   -0.31746E+00 12661   0.206E-01    0.332E-01
RMM:  30    -0.112379770232E+03   -0.39103E-01   -0.45838E+00 12809   0.308E-01    0.324E-01
RMM:  31    -0.112303700609E+03    0.76070E-01   -0.49075E+00 13016   0.308E-01    0.121E-01
RMM:  32    -0.112331775662E+03   -0.28075E-01   -0.14541E+00 12846   0.109E-01    0.337E-01
RMM:  33    -0.112458447630E+03   -0.12667E+00   -0.48199E+00 12472   0.310E-01    0.333E-01
RMM:  34    -0.112430361067E+03    0.28087E-01   -0.43136E+00 12996   0.301E-01    0.251E-01
RMM:  35    -0.112258715735E+03    0.17165E+00   -0.39402E+00 13072   0.235E-01    0.609E-02
RMM:  36    -0.112269523144E+03   -0.10807E-01   -0.10129E+00 12901   0.615E-02    0.946E-02
RMM:  37    -0.112411349820E+03   -0.14183E+00   -0.98026E-01 11272   0.752E-02    0.443E-01
RMM:  38    -0.112355133396E+03    0.56216E-01   -0.66387E+00 12386   0.418E-01    0.321E-01
RMM:  39    -0.112320179278E+03    0.34954E-01   -0.36625E+00 12969   0.258E-01    0.245E-01
RMM:  40    -0.112379678708E+03   -0.59499E-01   -0.36344E+00 12632   0.237E-01    0.291E-01
RMM:  41    -0.112407382093E+03   -0.27703E-01   -0.48012E+00 12451   0.299E-01    0.460E-01
RMM:  42    -0.112378594261E+03    0.28788E-01   -0.69832E+00 12791   0.455E-01    0.417E-01
RMM:  43    -0.112336148517E+03    0.42446E-01   -0.71050E+00 13152   0.432E-01    0.221E-01
RMM:  44    -0.112292118107E+03    0.44030E-01   -0.37460E+00 12658   0.234E-01    0.171E-01
RMM:  45    -0.112349790977E+03   -0.57673E-01   -0.19357E+00 12582   0.142E-01    0.291E-01
RMM:  46    -0.112333027880E+03    0.16763E-01   -0.45580E+00 11458   0.293E-01    0.253E-01
RMM:  47    -0.112288041073E+03    0.44987E-01   -0.51965E+00 12136   0.292E-01    0.162E-01
RMM:  48    -0.112331161435E+03   -0.43120E-01   -0.15610E+00 12851   0.129E-01    0.267E-01
RMM:  49    -0.112328081174E+03    0.30803E-02   -0.44188E+00 12111   0.274E-01    0.242E-01
RMM:  50    -0.112318180328E+03    0.99008E-02   -0.42411E+00 12359   0.257E-01    0.320E-01
RMM:  51    -0.112289555221E+03    0.28625E-01   -0.61152E+00 12607   0.349E-01    0.250E-01
RMM:  52    -0.112360844162E+03   -0.71289E-01   -0.43635E+00 12619   0.265E-01    0.323E-01
RMM:  53    -0.112396021902E+03   -0.35178E-01   -0.51863E+00 12439   0.330E-01    0.317E-01
RMM:  54    -0.112323637446E+03    0.72384E-01   -0.52744E+00 12700   0.327E-01    0.194E-01
RMM:  55    -0.112303930073E+03    0.19707E-01   -0.27921E+00 12776   0.186E-01    0.288E-01
RMM:  56    -0.112369450912E+03   -0.65521E-01   -0.40135E+00 12556   0.271E-01    0.452E-01
RMM:  57    -0.112406870328E+03   -0.37419E-01   -0.79632E+00 12744   0.474E-01    0.454E-01
RMM:  58    -0.112364212229E+03    0.42658E-01   -0.71567E+00 13249   0.460E-01    0.315E-01
RMM:  59    -0.112428755073E+03   -0.64543E-01   -0.53762E+00 12496   0.330E-01    0.452E-01
RMM:  60    -0.112312501945E+03    0.11625E+00   -0.78679E+00 13053   0.481E-01    0.304E-01
RMM:  61    -0.112289507678E+03    0.22994E-01   -0.53608E+00 12439   0.330E-01    0.258E-01
RMM:  62    -0.112325576609E+03   -0.36069E-01   -0.44430E+00 13566   0.278E-01    0.282E-01
RMM:  63    -0.112331900794E+03   -0.63242E-02   -0.59784E+00 12198   0.332E-01    0.323E-01
RMM:  64    -0.112346438360E+03   -0.14538E-01   -0.59243E+00 12963   0.352E-01    0.259E-01
RMM:  65    -0.112313609173E+03    0.32829E-01   -0.42211E+00 12525   0.257E-01    0.257E-01
RMM:  66    -0.112343182735E+03   -0.29574E-01   -0.34049E+00 12692   0.240E-01    0.239E-01
RMM:  67    -0.112378477261E+03   -0.35295E-01   -0.44781E+00 14006   0.268E-01    0.375E-01
RMM:  68    -0.112329926699E+03    0.48551E-01   -0.59231E+00 12227   0.378E-01    0.301E-01
RMM:  69    -0.112318592312E+03    0.11334E-01   -0.52559E+00 13017   0.326E-01    0.373E-01
RMM:  70    -0.112345379781E+03   -0.26787E-01   -0.67401E+00 12394   0.408E-01    0.294E-01
RMM:  71    -0.112347811612E+03   -0.24318E-02   -0.37570E+00 13281   0.266E-01    0.298E-01
RMM:  72    -0.112316757352E+03    0.31054E-01   -0.55270E+00 13675   0.327E-01    0.207E-01
RMM:  73    -0.112275460392E+03    0.41297E-01   -0.38572E+00 13431   0.227E-01    0.160E-01
RMM:  74    -0.112268711669E+03    0.67487E-02   -0.31376E+00 12961   0.186E-01    0.132E-01
RMM:  75    -0.112323473107E+03   -0.54761E-01   -0.24027E+00 13809   0.147E-01    0.380E-01
RMM:  76    -0.112374384282E+03   -0.50911E-01   -0.57527E+00 12154   0.382E-01    0.399E-01
RMM:  77    -0.112336761020E+03    0.37623E-01   -0.73643E+00 13798   0.439E-01    0.334E-01
RMM:  78    -0.112334942399E+03    0.18186E-02   -0.58978E+00 12696   0.362E-01    0.382E-01
RMM:  79    -0.112413634304E+03   -0.78692E-01   -0.66160E+00 13032   0.408E-01    0.333E-01
RMM:  80    -0.112448876578E+03   -0.35242E-01   -0.62148E+00 12438   0.368E-01
   3 F= -.11244888E+03 E0= -.11244725E+03  d E =-.262677E+01
       N       E                     dE             d eps       ncg     rms          rms(c)
DAV:   1    -0.111611836253E+03    0.80180E+00   -0.32269E+02 14336   0.246E+01    0.131E+00
RMM:   2    -0.112440606269E+03   -0.82877E+00   -0.88244E+00 14385   0.499E+00    0.696E-01
RMM:   3    -0.112524403740E+03   -0.83797E-01   -0.80645E-01 17427   0.172E+00    0.127E+00
RMM:   4    -0.112468170739E+03    0.56233E-01   -0.14655E-02 14830   0.214E-01    0.450E-01
RMM:   5    -0.112473169550E+03   -0.49988E-02   -0.35340E-03 16512   0.107E-01    0.559E-01
RMM:   6    -0.112465881430E+03    0.72881E-02   -0.20210E-03 14620   0.661E-02    0.271E-01
RMM:   7    -0.112465687841E+03    0.19359E-03   -0.43561E-03 14551   0.108E-01    0.163E-01
RMM:   8    -0.112465066929E+03    0.62091E-03   -0.79094E-04 16368   0.461E-02    0.645E-02
RMM:   9    -0.112464937759E+03    0.12917E-03   -0.99096E-05 14931   0.181E-02    0.420E-02
RMM:  10    -0.112464952271E+03   -0.14512E-04   -0.90004E-05 14456   0.185E-02    0.233E-02
RMM:  11    -0.112465021872E+03   -0.69601E-04   -0.32655E-05 14667   0.138E-02    0.105E-02
RMM:  12    -0.112465068647E+03   -0.46774E-04    0.52500E-05 14257   0.556E-03    0.613E-03
RMM:  13    -0.112465112197E+03   -0.43550E-04    0.11047E-04 11880   0.290E-03    0.414E-03
RMM:  14    -0.112465149863E+03   -0.37666E-04    0.22527E-04 11546   0.200E-03    0.247E-03
RMM:  15    -0.112465181275E+03   -0.31411E-04    0.39333E-04 11203   0.157E-03    0.160E-03
RMM:  16    -0.112465229401E+03   -0.48126E-04    0.36090E-04 11059   0.131E-03    0.103E-03
RMM:  17    -0.112465216091E+03    0.13310E-04    0.57086E-04 10199   0.934E-04    0.809E-04
RMM:  18    -0.112464965589E+03    0.25050E-03    0.23211E-03  8581   0.482E-04    0.399E-03
RMM:  19    -0.112464981005E+03   -0.15416E-04    0.80040E-03  7382  -0.939E-04    0.487E-03
RMM:  20    -0.112464796343E+03    0.18466E-03    0.94633E-03  7189  -0.831E-04    0.513E-03
RMM:  21    -0.112463394285E+03    0.14021E-02    0.15253E-02  6998  -0.157E-03    0.155E-02
RMM:  22    -0.112467054852E+03   -0.36606E-02    0.27676E-02  7984  -0.436E-03    0.227E-02
RMM:  23    -0.112463118050E+03    0.39368E-02   -0.13433E-01  8767   0.135E-02    0.177E-02
RMM:  24    -0.112461664591E+03    0.14535E-02    0.94959E-02  8389  -0.880E-03    0.155E-02
RMM:  25    -0.112469461014E+03   -0.77964E-02    0.53999E-02  8243  -0.579E-03    0.642E-02
RMM:  26    -0.112464409535E+03    0.50515E-02   -0.57753E-01 10482   0.315E-02    0.718E-02
RMM:  27    -0.112487790362E+03   -0.23381E-01   -0.47902E-01 10917   0.417E-02    0.209E-01
RMM:  28    -0.112542879504E+03   -0.55089E-01   -0.14661E+00 11911   0.128E-01    0.308E-01
RMM:  29    -0.112537557483E+03    0.53220E-02   -0.17297E+00 12837   0.146E-01    0.299E-01
RMM:  30    -0.112564920510E+03   -0.27363E-01   -0.30527E+00 13051   0.215E-01    0.351E-01
RMM:  31    -0.112551580725E+03    0.13340E-01   -0.45156E+00 13301   0.322E-01    0.372E-01
RMM:  32    -0.112608329503E+03   -0.56749E-01   -0.41998E+00 13347   0.313E-01    0.369E-01
RMM:  33    -0.112551374198E+03    0.56955E-01   -0.45814E+00 13455   0.321E-01    0.236E-01
RMM:  34    -0.112561050949E+03   -0.96768E-02   -0.42140E+00 12985   0.260E-01    0.327E-01
RMM:  35    -0.112591475979E+03   -0.30425E-01   -0.47582E+00 13019   0.316E-01    0.258E-01
RMM:  36    -0.112559661215E+03    0.31815E-01   -0.26418E+00 12892   0.187E-01    0.228E-01
RMM:  37    -0.112585772333E+03   -0.26111E-01   -0.19809E+00 12667   0.165E-01    0.456E-01
RMM:  38    -0.112569426201E+03    0.16346E-01   -0.53360E+00 12533   0.395E-01    0.339E-01
RMM:  39    -0.112593518679E+03   -0.24092E-01   -0.54782E+00 13218   0.346E-01    0.255E-01
RMM:  40    -0.112587510292E+03    0.60084E-02   -0.32780E+00 12533   0.229E-01    0.340E-01
RMM:  41    -0.112566286523E+03    0.21224E-01   -0.46849E+00 12583   0.314E-01    0.307E-01
RMM:  42    -0.112647415335E+03   -0.81129E-01   -0.44191E+00 12653   0.293E-01    0.428E-01
RMM:  43    -0.112625148034E+03    0.22267E-01   -0.75104E+00 12836   0.451E-01    0.416E-01
RMM:  44    -0.112636724342E+03   -0.11576E-01   -0.50643E+00 12893   0.361E-01    0.350E-01
RMM:  45    -0.112583457803E+03    0.53267E-01   -0.61079E+00 12942   0.377E-01    0.449E-01
RMM:  46    -0.112663316084E+03   -0.79858E-01   -0.70321E+00 12524   0.449E-01    0.508E-01
RMM:  47    -0.112615567321E+03    0.47749E-01   -0.10035E+01 13174   0.580E-01    0.445E-01
RMM:  48    -0.112666066670E+03   -0.50499E-01   -0.79777E+00 12890   0.484E-01    0.458E-01
RMM:  49    -0.112490990930E+03    0.17508E+00   -0.82811E+00 12899   0.497E-01    0.216E-01
RMM:  50    -0.112575369231E+03   -0.84378E-01   -0.38466E+00 12599   0.228E-01    0.414E-01
RMM:  51    -0.112497368245E+03    0.78001E-01   -0.70859E+00 12572   0.436E-01    0.224E-01
RMM:  52    -0.112572879998E+03   -0.75512E-01   -0.31621E+00 12428   0.218E-01    0.376E-01
RMM:  53    -0.112517545944E+03    0.55334E-01   -0.59488E+00 12255   0.386E-01    0.220E-01
RMM:  54    -0.112568014263E+03   -0.50468E-01   -0.25087E+00 12842   0.189E-01    0.342E-01
RMM:  55    -0.112665720245E+03   -0.97706E-01   -0.66568E+00 12236   0.386E-01    0.588E-01
RMM:  56    -0.112786286806E+03   -0.12057E+00   -0.98915E+00 12744   0.611E-01    0.588E-01
RMM:  57    -0.112643386623E+03    0.14290E+00   -0.10629E+01 13721   0.640E-01    0.418E-01
RMM:  58    -0.112612971219E+03    0.30415E-01   -0.77736E+00 12487   0.462E-01    0.463E-01
RMM:  59    -0.112549126365E+03    0.63845E-01   -0.94119E+00 13186   0.539E-01    0.236E-01
RMM:  60    -0.112612142715E+03   -0.63016E-01   -0.35954E+00 12553   0.235E-01    0.387E-01
RMM:  61    -0.112531524216E+03    0.80618E-01   -0.80647E+00 12909   0.456E-01    0.289E-01
RMM:  62    -0.112572682848E+03   -0.41159E-01   -0.45455E+00 12525   0.289E-01    0.344E-01
RMM:  63    -0.112535111084E+03    0.37572E-01   -0.70154E+00 12835   0.404E-01    0.291E-01
RMM:  64    -0.112545825776E+03   -0.10715E-01   -0.39987E+00 12280   0.271E-01    0.331E-01
RMM:  65    -0.112511354109E+03    0.34472E-01   -0.47142E+00 12853   0.318E-01    0.256E-01
RMM:  66    -0.112566261710E+03   -0.54908E-01   -0.49473E+00 12307   0.291E-01    0.378E-01
RMM:  67    -0.112572573115E+03   -0.63114E-02   -0.71445E+00 14644   0.426E-01    0.424E-01
RMM:  68    -0.112600299352E+03   -0.27726E-01   -0.91506E+00 12882   0.507E-01    0.471E-01
RMM:  69    -0.112617072277E+03   -0.16773E-01   -0.91132E+00 13201   0.538E-01    0.418E-01
RMM:  70    -0.112510957743E+03    0.10611E+00   -0.73934E+00 12906   0.461E-01    0.296E-01
RMM:  71    -0.112542993042E+03   -0.32035E-01   -0.58900E+00 13456   0.342E-01    0.336E-01
RMM:  72    -0.112612471975E+03   -0.69479E-01   -0.53030E+00 15303   0.350E-01    0.481E-01
RMM:  73    -0.112592014653E+03    0.20457E-01   -0.10383E+01 13430   0.582E-01    0.383E-01
RMM:  74    -0.112603124446E+03   -0.11110E-01   -0.70187E+00 13977   0.427E-01    0.536E-01
RMM:  75    -0.112584583379E+03    0.18541E-01   -0.10914E+01 12357   0.629E-01    0.389E-01
RMM:  76    -0.112646052426E+03   -0.61469E-01   -0.70074E+00 14030   0.428E-01    0.500E-01
RMM:  77    -0.112611636623E+03    0.34416E-01   -0.10607E+01 13391   0.598E-01    0.494E-01
RMM:  78    -0.112682937815E+03   -0.71301E-01   -0.91523E+00 12951   0.546E-01    0.523E-01
RMM:  79    -0.112623029900E+03    0.59908E-01   -0.11551E+01 12773   0.644E-01    0.352E-01
RMM:  80    -0.112759059161E+03   -0.13603E+00   -0.50519E+00 14007   0.347E-01
   4 F= -.11275906E+03 E0= -.11276296E+03  d E =-.293696E+01
       N       E                     dE             d eps       ncg     rms          rms(c)
DAV:   1    -0.112458264562E+03    0.16477E+00   -0.22535E+02 14336   0.194E+01    0.119E+00
RMM:   2    -0.113043972835E+03   -0.58571E+00   -0.61125E+00 14398   0.402E+00    0.816E-01
RMM:   3    -0.113067977617E+03   -0.24005E-01   -0.55467E-01 17417   0.143E+00    0.966E-01
RMM:   4    -0.113044407829E+03    0.23570E-01   -0.11975E-02 14634   0.183E-01    0.437E-01
RMM:   5    -0.113038800490E+03    0.56073E-02   -0.29770E-03 16225   0.947E-02    0.263E-01
RMM:   6    -0.113042120831E+03   -0.33203E-02   -0.33335E-03 14474   0.863E-02    0.289E-01
RMM:   7    -0.113038258346E+03    0.38625E-02   -0.12191E-03 15615   0.571E-02    0.120E-01
RMM:   8    -0.113037929603E+03    0.32874E-03   -0.45225E-04 15614   0.332E-02    0.563E-02
RMM:   9    -0.113037914224E+03    0.15380E-04   -0.62976E-05 15444   0.151E-02    0.358E-02
RMM:  10    -0.113037929345E+03   -0.15122E-04   -0.11048E-05 14371   0.115E-02    0.162E-02
RMM:  11    -0.113038004593E+03   -0.75247E-04    0.23573E-05 14200   0.108E-02    0.740E-03
RMM:  12    -0.113038038668E+03   -0.34075E-04    0.12728E-04 13918   0.468E-03    0.543E-03
RMM:  13    -0.113038075891E+03   -0.37223E-04    0.27357E-04 12043   0.311E-03    0.311E-03
RMM:  14    -0.113038115063E+03   -0.39172E-04    0.39905E-04 11482   0.195E-03    0.196E-03
RMM:  15    -0.113038166298E+03   -0.51235E-04    0.31724E-04 11158   0.159E-03    0.136E-03
RMM:  16    -0.113038150136E+03    0.16162E-04    0.57341E-04 10357   0.101E-03    0.108E-03
RMM:  17    -0.113038106333E+03    0.43804E-04    0.13576E-03  9511   0.608E-04    0.181E-03
RMM:  18    -0.113038049030E+03    0.57303E-04    0.28285E-03  8285   0.973E-05    0.208E-03
RMM:  19    -0.113037691943E+03    0.35709E-03    0.38029E-03  7334  -0.134E-04    0.647E-03
RMM:  20    -0.113038468397E+03   -0.77645E-03    0.12192E-02  7431  -0.169E-03    0.186E-02
RMM:  21    -0.113037740570E+03    0.72783E-03   -0.64699E-02  8416   0.727E-03    0.649E-03
RMM:  22    -0.113036258253E+03    0.14823E-02    0.24209E-02  8229  -0.209E-03    0.125E-02
RMM:  23    -0.113036840996E+03   -0.58274E-03    0.62356E-02  7760  -0.603E-03    0.124E-02
RMM:  24    -0.113036236492E+03    0.60450E-03    0.47718E-02  7955  -0.448E-03    0.272E-02
RMM:  25    -0.113039792463E+03   -0.35560E-02   -0.11923E-01  8997   0.138E-02    0.158E-02
RMM:  26    -0.113047839971E+03   -0.80475E-02    0.56923E-02  9096  -0.124E-03    0.480E-02
RMM:  27    -0.113075166968E+03   -0.27327E-01   -0.44250E-02 10007   0.771E-03    0.133E-01
RMM:  28    -0.113173297483E+03   -0.98131E-01   -0.14077E+00 10781   0.107E-01    0.454E-01
RMM:  29    -0.113329674795E+03   -0.15638E+00   -0.35211E+00 12840   0.262E-01    0.650E-01
RMM:  30    -0.113266621584E+03    0.63053E-01   -0.66318E+00 14108   0.434E-01    0.746E-01
RMM:  31    -0.113183517138E+03    0.83104E-01   -0.81996E+00 13713   0.580E-01    0.567E-01
RMM:  32    -0.113151597418E+03    0.31920E-01   -0.69243E+00 13990   0.469E-01    0.525E-01
RMM:  33    -0.113068308216E+03    0.83289E-01   -0.74497E+00 13314   0.492E-01    0.184E-01
RMM:  34    -0.113066964039E+03    0.13442E-02   -0.29146E+00 13137   0.177E-01    0.174E-01
RMM:  35    -0.113101171254E+03   -0.34207E-01   -0.14450E+00 12575   0.123E-01    0.353E-01
RMM:  36    -0.113101362157E+03   -0.19090E-03   -0.36335E+00 12482   0.271E-01    0.249E-01
RMM:  37    -0.113176623658E+03   -0.75262E-01   -0.31989E+00 12864   0.226E-01    0.343E-01
RMM:  38    -0.113082362624E+03    0.94261E-01   -0.44191E+00 12910   0.298E-01    0.177E-01
RMM:  39    -0.113146501291E+03   -0.64139E-01   -0.24869E+00 13096   0.163E-01    0.296E-01
RMM:  40    -0.113056094085E+03    0.90407E-01   -0.39091E+00 12688   0.259E-01    0.154E-01
RMM:  41    -0.113109619967E+03   -0.53526E-01   -0.17615E+00 12700   0.133E-01    0.379E-01
RMM:  42    -0.113094242925E+03    0.15377E-01   -0.50776E+00 12565   0.340E-01    0.288E-01
RMM:  43    -0.113158771474E+03   -0.64529E-01   -0.47353E+00 12710   0.296E-01    0.382E-01
RMM:  44    -0.113265728802E+03   -0.10696E+00   -0.57311E+00 12286   0.365E-01    0.598E-01
RMM:  45    -0.113185291779E+03    0.80437E-01   -0.10610E+01 12795   0.631E-01    0.346E-01
RMM:  46    -0.113187564986E+03   -0.22732E-02   -0.53878E+00 12953   0.337E-01    0.495E-01
RMM:  47    -0.113159434928E+03    0.28130E-01   -0.91409E+00 12822   0.542E-01    0.343E-01
RMM:  48    -0.113201764677E+03   -0.42330E-01   -0.53275E+00 12897   0.342E-01    0.493E-01
RMM:  49    -0.113300931144E+03   -0.99166E-01   -0.85888E+00 12875   0.527E-01    0.695E-01
RMM:  50    -0.113263044816E+03    0.37886E-01   -0.10761E+01 13036   0.692E-01    0.508E-01
RMM:  51    -0.113216920605E+03    0.46124E-01   -0.95802E+00 13296   0.559E-01    0.401E-01
RMM:  52    -0.113234474093E+03   -0.17553E-01   -0.70212E+00 12916   0.426E-01    0.511E-01
RMM:  53    -0.113120051439E+03    0.11442E+00   -0.83550E+00 12949   0.519E-01    0.354E-01
RMM:  54    -0.113156935524E+03   -0.36884E-01   -0.69671E+00 12562   0.397E-01    0.318E-01
RMM:  55    -0.113124392811E+03    0.32543E-01   -0.43908E+00 12700   0.302E-01    0.380E-01
RMM:  56    -0.113152403046E+03   -0.28010E-01   -0.65044E+00 12338   0.390E-01    0.376E-01
RMM:  57    -0.113125327026E+03    0.27076E-01   -0.59481E+00 12900   0.380E-01    0.349E-01
RMM:  58    -0.113151840515E+03   -0.26513E-01   -0.69029E+00 12652   0.401E-01    0.515E-01
RMM:  59    -0.113266052031E+03   -0.11421E+00   -0.10022E+01 12725   0.576E-01    0.564E-01
RMM:  60    -0.113282640788E+03   -0.16589E-01   -0.10600E+01 12606   0.617E-01    0.538E-01
RMM:  61    -0.113244011026E+03    0.38630E-01   -0.93510E+00 13328   0.566E-01    0.484E-01
RMM:  62    -0.113210724551E+03    0.33286E-01   -0.97124E+00 12549   0.553E-01    0.452E-01
RMM:  63    -0.113214334781E+03   -0.36102E-02   -0.86088E+00 12833   0.504E-01    0.369E-01
RMM:  64    -0.113201142185E+03    0.13193E-01   -0.66613E+00 12696   0.401E-01    0.450E-01
RMM:  65    -0.113138670882E+03    0.62471E-01   -0.92260E+00 12900   0.522E-01    0.319E-01
RMM:  66    -0.113094279219E+03    0.44392E-01   -0.66672E+00 12583   0.373E-01    0.365E-01
RMM:  67    -0.113129874918E+03   -0.35596E-01   -0.67552E+00 14275   0.399E-01    0.399E-01
RMM:  68    -0.113142583730E+03   -0.12709E-01   -0.80376E+00 12378   0.455E-01    0.476E-01
RMM:  69    -0.113146429687E+03   -0.38460E-02   -0.92915E+00 12899   0.532E-01    0.429E-01
RMM:  70    -0.113173639766E+03   -0.27210E-01   -0.78137E+00 12485   0.467E-01    0.502E-01
RMM:  71    -0.113172980076E+03    0.65969E-03   -0.96155E+00 13453   0.564E-01    0.371E-01
RMM:  72    -0.113175207255E+03   -0.22272E-02   -0.79886E+00 15573   0.448E-01    0.375E-01
RMM:  73    -0.113213358712E+03   -0.38151E-01   -0.63218E+00 14481   0.396E-01    0.373E-01
RMM:  74    -0.113166146767E+03    0.47212E-01   -0.66402E+00 14014   0.397E-01    0.436E-01
RMM:  75    -0.113127207465E+03    0.38939E-01   -0.85955E+00 13437   0.500E-01    0.371E-01
RMM:  76    -0.113104346581E+03    0.22861E-01   -0.66335E+00 13729   0.404E-01    0.181E-01
RMM:  77    -0.113094723452E+03    0.96231E-02   -0.41688E+00 15220   0.232E-01    0.308E-01
RMM:  78    -0.113160475839E+03   -0.65752E-01   -0.57903E+00 14281   0.343E-01    0.302E-01
RMM:  79    -0.113202238023E+03   -0.41762E-01   -0.50823E+00 13607   0.318E-01    0.446E-01
RMM:  80    -0.113157384057E+03    0.44854E-01   -0.92545E+00 12584   0.519E-01
   5 F= -.11315738E+03 E0= -.11316892E+03  d E =-.398325E+00
       N       E                     dE             d eps       ncg     rms          rms(c)
DAV:   1    -0.112884912972E+03    0.31733E+00   -0.40796E+02 17920   0.268E+01    0.130E+00
RMM:   2    -0.113268203301E+03   -0.38329E+00   -0.41797E+00 14343   0.348E+00    0.125E+00
RMM:   3    -0.113249309744E+03    0.18894E-01   -0.21250E-01 17043   0.110E+00    0.104E+00
RMM:   4    -0.113211026236E+03    0.38284E-01   -0.19125E-02 15496   0.206E-01    0.423E-01
RMM:   5    -0.113207008802E+03    0.40174E-02   -0.46143E-03 15786   0.979E-02    0.286E-01
RMM:   6    -0.113205647920E+03    0.13609E-02   -0.48566E-03 14638   0.906E-02    0.137E-01
RMM:   7    -0.113205147386E+03    0.50053E-03   -0.64358E-04 16536   0.472E-02    0.644E-02
RMM:   8    -0.113205273398E+03   -0.12601E-03   -0.13370E-04 14842   0.155E-02    0.397E-02
RMM:   9    -0.113205348099E+03   -0.74701E-04   -0.44358E-05 14785   0.103E-02    0.226E-02
RMM:  10    -0.113205531398E+03   -0.18330E-03   -0.26273E-05 14001   0.888E-03    0.105E-02
RMM:  11    -0.113205668507E+03   -0.13711E-03    0.19801E-05 13171   0.552E-03    0.673E-03
RMM:  12    -0.113205779210E+03   -0.11070E-03    0.66325E-05 12516   0.385E-03    0.430E-03
RMM:  13    -0.113205872667E+03   -0.93458E-04    0.10997E-04 11907   0.271E-03    0.292E-03
RMM:  14    -0.113205939635E+03   -0.66968E-04    0.26676E-04 11586   0.218E-03    0.180E-03
RMM:  15    -0.113205978281E+03   -0.38646E-04    0.70333E-04 11503   0.207E-03    0.962E-04
RMM:  16    -0.113205931911E+03    0.46369E-04    0.15890E-03 10794   0.120E-03    0.120E-03
RMM:  17    -0.113205925576E+03    0.63353E-05    0.26888E-03  8363   0.199E-04    0.137E-03
RMM:  18    -0.113205865539E+03    0.60037E-04    0.32057E-03  7942   0.590E-05    0.330E-03
RMM:  19    -0.113205818402E+03    0.47137E-04    0.49351E-03  7260  -0.324E-04    0.382E-03
RMM:  20    -0.113205042108E+03    0.77629E-03    0.10349E-02  7161  -0.749E-04    0.142E-02
RMM:  21    -0.113205357157E+03   -0.31505E-03    0.38668E-02  8513  -0.438E-03    0.353E-02
RMM:  22    -0.113213661138E+03   -0.83040E-02    0.15689E-02  8635   0.642E-04    0.111E-01
RMM:  23    -0.113204241301E+03    0.94198E-02   -0.33116E-01 10036   0.387E-02    0.113E-02
RMM:  24    -0.113216151569E+03   -0.11910E-01    0.61107E-02  9835  -0.440E-03    0.102E-01
RMM:  25    -0.113240497945E+03   -0.24346E-01   -0.99518E-01 10360   0.763E-02    0.932E-02
RMM:  26    -0.113229237628E+03    0.11260E-01   -0.50021E-01 10490   0.427E-02    0.102E-01
RMM:  27    -0.113233005985E+03   -0.37684E-02   -0.10883E+00 10688   0.778E-02    0.965E-02
RMM:  28    -0.113241510568E+03   -0.85046E-02   -0.64492E-01 11925   0.533E-02    0.274E-01
RMM:  29    -0.113341378091E+03   -0.99868E-01   -0.24698E+00 12443   0.169E-01    0.451E-01
RMM:  30    -0.113328334147E+03    0.13044E-01   -0.39867E+00 12732   0.300E-01    0.524E-01
RMM:  31    -0.113316006364E+03    0.12328E-01   -0.55849E+00 13803   0.390E-01    0.471E-01
RMM:  32    -0.113290531473E+03    0.25475E-01   -0.44034E+00 12746   0.314E-01    0.289E-01
RMM:  33    -0.113338809703E+03   -0.48278E-01   -0.30946E+00 13472   0.220E-01    0.519E-01
RMM:  34    -0.113274201390E+03    0.64608E-01   -0.50560E+00 13150   0.375E-01    0.371E-01
RMM:  35    -0.113217717357E+03    0.56484E-01   -0.38956E+00 13389   0.278E-01    0.137E-01
RMM:  36    -0.113257930571E+03   -0.40213E-01   -0.19135E+00 12431   0.124E-01    0.271E-01
RMM:  37    -0.113339596085E+03   -0.81666E-01   -0.45109E+00 12210   0.266E-01    0.253E-01
RMM:  38    -0.113339009212E+03    0.58687E-03   -0.27262E+00 12526   0.189E-01    0.240E-01
RMM:  39    -0.113270195869E+03    0.68813E-01   -0.35359E+00 12700   0.218E-01    0.279E-01
RMM:  40    -0.113243594642E+03    0.26601E-01   -0.27869E+00 11946   0.205E-01    0.189E-01
RMM:  41    -0.113305976492E+03   -0.62382E-01   -0.28489E+00 12238   0.175E-01    0.384E-01
RMM:  42    -0.113274324535E+03    0.31652E-01   -0.56866E+00 12672   0.349E-01    0.272E-01
RMM:  43    -0.113335621660E+03   -0.61297E-01   -0.40482E+00 13180   0.254E-01    0.339E-01
RMM:  44    -0.113275130131E+03    0.60492E-01   -0.51540E+00 12467   0.314E-01    0.267E-01
RMM:  45    -0.113224039917E+03    0.51090E-01   -0.39442E+00 12850   0.246E-01    0.133E-01
RMM:  46    -0.113257123493E+03   -0.33084E-01   -0.23786E+00 12214   0.138E-01    0.228E-01
RMM:  47    -0.113223959639E+03    0.33164E-01   -0.29061E+00 11631   0.196E-01    0.831E-02
RMM:  48    -0.113293623216E+03   -0.69664E-01   -0.10838E+00 12238   0.735E-02    0.271E-01
RMM:  49    -0.113251021872E+03    0.42601E-01   -0.33083E+00 11476   0.224E-01    0.967E-02
RMM:  50    -0.113288110738E+03   -0.37089E-01   -0.98098E-01 12462   0.736E-02    0.268E-01
RMM:  51    -0.113264865893E+03    0.23245E-01   -0.44875E+00 12078   0.265E-01    0.266E-01
RMM:  52    -0.113318259750E+03   -0.53394E-01   -0.36540E+00 12484   0.235E-01    0.489E-01
RMM:  53    -0.113288044586E+03    0.30215E-01   -0.81696E+00 12548   0.483E-01    0.394E-01
RMM:  54    -0.113292133091E+03   -0.40885E-02   -0.51597E+00 13048   0.341E-01    0.388E-01
RMM:  55    -0.113360246161E+03   -0.68113E-01   -0.53754E+00 11304   0.348E-01    0.372E-01
RMM:  56    -0.113285226349E+03    0.75020E-01   -0.63874E+00 12345   0.369E-01    0.366E-01
RMM:  57    -0.113292655975E+03   -0.74296E-02   -0.46839E+00 12550   0.311E-01    0.394E-01
RMM:  58    -0.113316902523E+03   -0.24247E-01   -0.69152E+00 12773   0.390E-01    0.418E-01
RMM:  59    -0.113310566271E+03    0.63363E-02   -0.68078E+00 12569   0.396E-01    0.321E-01
RMM:  60    -0.113326555438E+03   -0.15989E-01   -0.50266E+00 12849   0.303E-01    0.430E-01
RMM:  61    -0.113362803367E+03   -0.36248E-01   -0.64615E+00 12423   0.397E-01    0.490E-01
RMM:  62    -0.113318515001E+03    0.44288E-01   -0.82426E+00 12873   0.480E-01    0.573E-01
RMM:  63    -0.113426840971E+03   -0.10833E+00   -0.83792E+00 13176   0.518E-01    0.606E-01
RMM:  64    -0.113419554104E+03    0.72869E-02   -0.91100E+00 12900   0.557E-01    0.547E-01
RMM:  65    -0.113414209687E+03    0.53444E-02   -0.88013E+00 12986   0.525E-01    0.454E-01
RMM:  66    -0.113401862784E+03    0.12347E-01   -0.70927E+00 12661   0.432E-01    0.432E-01
RMM:  67    -0.113339164100E+03    0.62699E-01   -0.81868E+00 14692   0.450E-01    0.470E-01
RMM:  68    -0.113281349628E+03    0.57814E-01   -0.70001E+00 12636   0.426E-01    0.235E-01
RMM:  69    -0.113313248263E+03   -0.31899E-01   -0.36922E+00 13116   0.229E-01    0.291E-01
RMM:  70    -0.113259824091E+03    0.53424E-01   -0.51328E+00 11734   0.293E-01    0.266E-01
RMM:  71    -0.113253779441E+03    0.60446E-02   -0.52581E+00 13181   0.288E-01    0.318E-01
RMM:  72    -0.113347722822E+03   -0.93943E-01   -0.47596E+00 13673   0.298E-01    0.582E-01
RMM:  73    -0.113329342412E+03    0.18380E-01   -0.87432E+00 12710   0.534E-01    0.342E-01
RMM:  74    -0.113319545154E+03    0.97973E-02   -0.59199E+00 13175   0.335E-01    0.519E-01
RMM:  75    -0.113407543558E+03   -0.87998E-01   -0.85481E+00 12765   0.500E-01    0.692E-01
RMM:  76    -0.113412619383E+03   -0.50758E-02   -0.11078E+01 12955   0.654E-01    0.663E-01
RMM:  77    -0.113368906291E+03    0.43713E-01   -0.10697E+01 13066   0.627E-01    0.402E-01
RMM:  78    -0.113348042249E+03    0.20864E-01   -0.71854E+00 12861   0.405E-01    0.488E-01
RMM:  79    -0.113305510520E+03    0.42532E-01   -0.86914E+00 12753   0.493E-01    0.511E-01
RMM:  80    -0.113392149310E+03   -0.86639E-01   -0.85972E+00 12496   0.497E-01
   6 F= -.11339215E+03 E0= -.11340598E+03  d E =-.633090E+00
       N       E                     dE             d eps       ncg     rms          rms(c)
DAV:   1    -0.113126624496E+03    0.17889E+00   -0.53555E+01 14336   0.894E+00    0.541E-01
RMM:   2    -0.113248584901E+03   -0.12196E+00   -0.12415E+00 14525   0.185E+00    0.549E-01
RMM:   3    -0.113248351100E+03    0.23380E-03   -0.12084E-01 17375   0.681E-01    0.472E-01
RMM:   4    -0.113241453903E+03    0.68972E-02   -0.26259E-03 14616   0.844E-02    0.159E-01
RMM:   5    -0.113241348838E+03    0.10506E-03   -0.60675E-04 16173   0.420E-02    0.136E-01
RMM:   6    -0.113241113108E+03    0.23573E-03   -0.67812E-04 14522   0.351E-02    0.848E-02
RMM:   7    -0.113240809212E+03    0.30390E-03   -0.23206E-04 16226   0.228E-02    0.365E-02
RMM:   8    -0.113240762721E+03    0.46491E-04   -0.32376E-05 14914   0.979E-03    0.147E-02
RMM:   9    -0.113240770355E+03   -0.76339E-05   -0.10607E-05 14215   0.629E-03    0.885E-03
RMM:  10    -0.113240780690E+03   -0.10335E-04    0.28149E-06 13478   0.440E-03    0.468E-03
RMM:  11    -0.113240787316E+03   -0.66261E-05    0.18376E-05 11931   0.231E-03    0.308E-03
RMM:  12    -0.113240796876E+03   -0.95604E-05    0.32556E-05 11007   0.154E-03    0.155E-03
RMM:  13    -0.113240802366E+03   -0.54897E-05    0.59203E-05 10363   0.988E-04    0.101E-03
RMM:  14    -0.113240802861E+03   -0.49522E-06    0.11024E-04  9297   0.665E-04    0.742E-04
RMM:  15    -0.113240797909E+03    0.49527E-05    0.22047E-04  8714   0.605E-04    0.376E-04
RMM:  16    -0.113240795629E+03    0.22800E-05    0.30994E-04  8170   0.502E-04    0.264E-04
RMM:  17    -0.113240785330E+03    0.10299E-04    0.45610E-04  7676   0.468E-04    0.310E-04
RMM:  18    -0.113240783113E+03    0.22164E-05    0.55638E-04  7397   0.466E-04    0.458E-04
RMM:  19    -0.113240740957E+03    0.42156E-04    0.91924E-04  7445   0.513E-04    0.762E-04
RMM:  20    -0.113240654495E+03    0.86463E-04    0.24731E-03  7286   0.354E-04    0.226E-03
RMM:  21    -0.113241477673E+03   -0.82318E-03    0.51843E-03  7334  -0.216E-05    0.294E-02
RMM:  22    -0.113240182611E+03    0.12951E-02   -0.86942E-02  8992   0.968E-03    0.807E-03
RMM:  23    -0.113239196317E+03    0.98629E-03    0.22767E-02  8704  -0.181E-03    0.583E-03
RMM:  24    -0.113239583562E+03   -0.38725E-03    0.23979E-02  7949  -0.180E-03    0.104E-02
RMM:  25    -0.113265643257E+03   -0.26060E-01    0.41152E-02  7588  -0.417E-03    0.112E-01
RMM:  26    -0.113332657825E+03   -0.67015E-01   -0.43591E-01 11823   0.434E-02    0.225E-01
RMM:  27    -0.113261539624E+03    0.71118E-01   -0.14217E+00 12844   0.109E-01    0.135E-01
RMM:  28    -0.113361976573E+03   -0.10044E+00   -0.11305E+00 12400   0.842E-02    0.328E-01
RMM:  29    -0.113522000429E+03   -0.16002E+00   -0.18793E+00 12761   0.144E-01    0.517E-01
RMM:  30    -0.113475608200E+03    0.46392E-01   -0.44769E+00 13675   0.325E-01    0.745E-01
RMM:  31    -0.113444849960E+03    0.30758E-01   -0.78746E+00 14185   0.546E-01    0.639E-01
RMM:  32    -0.113480544075E+03   -0.35694E-01   -0.73865E+00 13400   0.473E-01    0.755E-01
RMM:  33    -0.113333585733E+03    0.14696E+00   -0.96496E+00 14135   0.654E-01    0.325E-01
RMM:  34    -0.113291216920E+03    0.42369E-01   -0.51404E+00 13452   0.313E-01    0.271E-01
RMM:  35    -0.113333132850E+03   -0.41916E-01   -0.31175E+00 13217   0.227E-01    0.298E-01
RMM:  36    -0.113332957021E+03    0.17583E-03   -0.42182E+00 12476   0.270E-01    0.407E-01
RMM:  37    -0.113288921368E+03    0.44036E-01   -0.58595E+00 13146   0.376E-01    0.313E-01
RMM:  38    -0.113298352141E+03   -0.94308E-02   -0.39392E+00 12799   0.263E-01    0.219E-01
RMM:  39    -0.113332832263E+03   -0.34480E-01   -0.28034E+00 12932   0.190E-01    0.339E-01
RMM:  40    -0.113417945942E+03   -0.85114E-01   -0.47918E+00 12546   0.309E-01    0.482E-01
RMM:  41    -0.113243913275E+03    0.17403E+00   -0.64042E+00 12924   0.413E-01    0.883E-02
RMM:  42    -0.113297562545E+03   -0.53649E-01   -0.12772E+00 12893   0.841E-02    0.272E-01
RMM:  43    -0.113310934694E+03   -0.13372E-01   -0.29107E+00 12552   0.219E-01    0.313E-01
RMM:  44    -0.113379812800E+03   -0.68878E-01   -0.48678E+00 12416   0.302E-01    0.345E-01
RMM:  45    -0.113304376936E+03    0.75436E-01   -0.47038E+00 12963   0.314E-01    0.325E-01
RMM:  46    -0.113306224407E+03   -0.18475E-02   -0.46689E+00 12624   0.301E-01    0.206E-01
RMM:  47    -0.113303791996E+03    0.24324E-02   -0.34422E+00 13211   0.212E-01    0.290E-01
RMM:  48    -0.113316296371E+03   -0.12504E-01   -0.38417E+00 12455   0.257E-01    0.295E-01
RMM:  49    -0.113316933532E+03   -0.63716E-03   -0.54596E+00 12852   0.315E-01    0.260E-01
RMM:  50    -0.113341688201E+03   -0.24755E-01   -0.40663E+00 12153   0.250E-01    0.345E-01
RMM:  51    -0.113340867433E+03    0.82077E-03   -0.51874E+00 12561   0.329E-01    0.342E-01
RMM:  52    -0.113331099175E+03    0.97683E-02   -0.54486E+00 12327   0.334E-01    0.368E-01
RMM:  53    -0.113298303951E+03    0.32795E-01   -0.64000E+00 12782   0.373E-01    0.229E-01
RMM:  54    -0.113295872059E+03    0.24319E-02   -0.34265E+00 12165   0.215E-01    0.215E-01
RMM:  55    -0.113328748999E+03   -0.32877E-01   -0.30939E+00 12859   0.201E-01    0.388E-01
RMM:  56    -0.113331084611E+03   -0.23356E-02   -0.60060E+00 12302   0.369E-01    0.437E-01
RMM:  57    -0.113329145789E+03    0.19388E-02   -0.70426E+00 12805   0.430E-01    0.417E-01
RMM:  58    -0.113367633844E+03   -0.38488E-01   -0.66854E+00 12764   0.410E-01    0.396E-01
RMM:  59    -0.113400354221E+03   -0.32720E-01   -0.68120E+00 12906   0.407E-01    0.475E-01
RMM:  60    -0.113306757184E+03    0.93597E-01   -0.84508E+00 12565   0.494E-01    0.335E-01
RMM:  61    -0.113305992309E+03    0.76488E-03   -0.51412E+00 12929   0.323E-01    0.367E-01
RMM:  62    -0.113373611506E+03   -0.67619E-01   -0.62024E+00 12575   0.371E-01    0.504E-01
RMM:  63    -0.113284551509E+03    0.89060E-01   -0.88681E+00 12571   0.518E-01    0.253E-01
RMM:  64    -0.113280678796E+03    0.38727E-02   -0.43823E+00 12744   0.261E-01    0.223E-01
RMM:  65    -0.113318627059E+03   -0.37948E-01   -0.27232E+00 12657   0.192E-01    0.358E-01
RMM:  66    -0.113323777572E+03   -0.51505E-02   -0.67649E+00 12267   0.377E-01    0.325E-01
RMM:  67    -0.113307623064E+03    0.16155E-01   -0.48980E+00 14467   0.317E-01    0.303E-01
RMM:  68    -0.113363285024E+03   -0.55662E-01   -0.51226E+00 13241   0.311E-01    0.350E-01
RMM:  69    -0.113328143092E+03    0.35142E-01   -0.62778E+00 13035   0.365E-01    0.307E-01
RMM:  70    -0.113333559423E+03   -0.54163E-02   -0.51488E+00 13156   0.306E-01    0.492E-01
RMM:  71    -0.113365065459E+03   -0.31506E-01   -0.82757E+00 12604   0.487E-01    0.492E-01
RMM:  72    -0.113412111712E+03   -0.47046E-01   -0.62087E+00 13894   0.421E-01    0.479E-01
RMM:  73    -0.113277824579E+03    0.13429E+00   -0.90159E+00 12749   0.510E-01    0.248E-01
RMM:  74    -0.113363649571E+03   -0.85825E-01   -0.37200E+00 13251   0.243E-01    0.423E-01
RMM:  75    -0.113279457850E+03    0.84192E-01   -0.70757E+00 12855   0.431E-01    0.227E-01
RMM:  76    -0.113365934571E+03   -0.86477E-01   -0.36585E+00 13106   0.227E-01    0.548E-01
RMM:  77    -0.113349800557E+03    0.16134E-01   -0.95403E+00 13415   0.563E-01    0.374E-01
RMM:  78    -0.113335667195E+03    0.14133E-01   -0.50950E+00 13068   0.339E-01    0.406E-01
RMM:  79    -0.113323510872E+03    0.12156E-01   -0.74054E+00 12577   0.426E-01    0.301E-01
RMM:  80    -0.113338317026E+03   -0.14806E-01   -0.43087E+00 12955   0.278E-01
   7 F= -.11333832E+03 E0= -.11334811E+03  d E =-.579258E+00
       N       E                     dE             d eps       ncg     rms          rms(c)
DAV:   1    -0.113110614246E+03    0.21290E+00   -0.15361E+02 14336   0.152E+01    0.947E-01
RMM:   2    -0.113507059068E+03   -0.39644E+00   -0.41276E+00 14482   0.316E+00    0.721E-01
RMM:   3    -0.113512318008E+03   -0.52589E-02   -0.36427E-01 17421   0.116E+00    0.702E-01
RMM:   4    -0.113494526259E+03    0.17792E-01   -0.87445E-03 14558   0.151E-01    0.270E-01
RMM:   5    -0.113493767930E+03    0.75833E-03   -0.23810E-03 15932   0.787E-02    0.194E-01
RMM:   6    -0.113494162108E+03   -0.39418E-03   -0.22958E-03 14495   0.735E-02    0.130E-01
RMM:   7    -0.113493434454E+03    0.72765E-03   -0.46314E-04 16713   0.370E-02    0.759E-02
RMM:   8    -0.113493245268E+03    0.18919E-03   -0.79790E-05 15021   0.127E-02    0.317E-02
RMM:   9    -0.113493262404E+03   -0.17135E-04   -0.38092E-05 14615   0.109E-02    0.177E-02
RMM:  10    -0.113493313803E+03   -0.51399E-04   -0.18235E-05 14355   0.887E-03    0.775E-03
RMM:  11    -0.113493350263E+03   -0.36460E-04    0.19708E-05 13639   0.412E-03    0.490E-03
RMM:  12    -0.113493398894E+03   -0.48632E-04    0.39659E-05 11774   0.260E-03    0.283E-03
RMM:  13    -0.113493437092E+03   -0.38198E-04    0.74478E-05 11482   0.183E-03    0.193E-03
RMM:  14    -0.113493458343E+03   -0.21251E-04    0.14311E-04 10906   0.128E-03    0.132E-03
RMM:  15    -0.113493478737E+03   -0.20395E-04    0.29618E-04 10753   0.130E-03    0.740E-04
RMM:  16    -0.113493473852E+03    0.48849E-05    0.57279E-04 10046   0.923E-04    0.559E-04
RMM:  17    -0.113493411512E+03    0.62341E-04    0.13764E-03  9011   0.578E-04    0.113E-03
RMM:  18    -0.113493371533E+03    0.39978E-04    0.26754E-03  7361   0.513E-05    0.165E-03
RMM:  19    -0.113492518973E+03    0.85256E-03    0.24511E-03  7006  -0.960E-06    0.387E-03
RMM:  20    -0.113493309264E+03   -0.79029E-03   -0.79943E-03  7239   0.788E-04    0.315E-03
RMM:  21    -0.113492418969E+03    0.89029E-03    0.93213E-03  6940  -0.771E-04    0.120E-02
RMM:  22    -0.113492516041E+03   -0.97072E-04   -0.26365E-02  8102   0.344E-03    0.771E-03
RMM:  23    -0.113491825618E+03    0.69042E-03   -0.10590E-02  7918   0.211E-03    0.184E-02
RMM:  24    -0.113501055199E+03   -0.92296E-02    0.73867E-02  8472  -0.738E-03    0.774E-02
RMM:  25    -0.113536091477E+03   -0.35036E-01   -0.29347E-01 10114   0.326E-02    0.158E-01
RMM:  26    -0.113591318318E+03   -0.55227E-01   -0.11140E+00 12055   0.919E-02    0.278E-01
RMM:  27    -0.113603806925E+03   -0.12489E-01   -0.28855E+00 12447   0.199E-01    0.313E-01
RMM:  28    -0.113696844897E+03   -0.93038E-01   -0.20312E+00 12239   0.138E-01    0.515E-01
RMM:  29    -0.113593106986E+03    0.10374E+00   -0.76330E+00 13142   0.456E-01    0.418E-01
RMM:  30    -0.113657068037E+03   -0.63961E-01   -0.50312E+00 12944   0.306E-01    0.633E-01
RMM:  31    -0.113663581877E+03   -0.65138E-02   -0.87649E+00 13368   0.531E-01    0.657E-01
RMM:  32    -0.113661559438E+03    0.20224E-02   -0.84335E+00 13347   0.547E-01    0.457E-01
RMM:  33    -0.113535420008E+03    0.12614E+00   -0.57875E+00 13657   0.384E-01    0.280E-01
RMM:  34    -0.113554123984E+03   -0.18704E-01   -0.40753E+00 12466   0.256E-01    0.315E-01
RMM:  35    -0.113520315752E+03    0.33808E-01   -0.49897E+00 12709   0.304E-01    0.200E-01
RMM:  36    -0.113603467217E+03   -0.83151E-01   -0.25027E+00 12317   0.170E-01    0.439E-01
RMM:  37    -0.113607196169E+03   -0.37290E-02   -0.56057E+00 12503   0.365E-01    0.365E-01
RMM:  38    -0.113538128607E+03    0.69068E-01   -0.36853E+00 12866   0.273E-01    0.267E-01
RMM:  39    -0.113522132381E+03    0.15996E-01   -0.41872E+00 12725   0.257E-01    0.177E-01
RMM:  40    -0.113549706958E+03   -0.27575E-01   -0.30065E+00 11952   0.178E-01    0.235E-01
RMM:  41    -0.113616351173E+03   -0.66644E-01   -0.31600E+00 11193   0.206E-01    0.332E-01
RMM:  42    -0.113623887102E+03   -0.75359E-02   -0.48864E+00 12520   0.299E-01    0.210E-01
RMM:  43    -0.113562005038E+03    0.61882E-01   -0.35024E+00 12630   0.208E-01    0.254E-01
RMM:  44    -0.113604227554E+03   -0.42223E-01   -0.38650E+00 12464   0.235E-01    0.339E-01
RMM:  45    -0.113547631288E+03    0.56596E-01   -0.48928E+00 12542   0.304E-01    0.362E-01
RMM:  46    -0.113654717579E+03   -0.10709E+00   -0.50615E+00 12575   0.320E-01    0.614E-01
RMM:  47    -0.113565945075E+03    0.88773E-01   -0.85002E+00 12301   0.539E-01    0.324E-01
RMM:  48    -0.113608534610E+03   -0.42590E-01   -0.54559E+00 13177   0.317E-01    0.380E-01
RMM:  49    -0.113556158144E+03    0.52376E-01   -0.44497E+00 12522   0.307E-01    0.314E-01
RMM:  50    -0.113529293078E+03    0.26865E-01   -0.39376E+00 12782   0.254E-01    0.233E-01
RMM:  51    -0.113547195968E+03   -0.17903E-01   -0.28411E+00 12252   0.191E-01    0.213E-01
RMM:  52    -0.113542116322E+03    0.50796E-02   -0.30536E+00 11251   0.194E-01    0.180E-01
RMM:  53    -0.113568553798E+03   -0.26437E-01   -0.28668E+00 11868   0.177E-01    0.408E-01
RMM:  54    -0.113615796789E+03   -0.47243E-01   -0.68939E+00 12378   0.407E-01    0.456E-01
RMM:  55    -0.113636161696E+03   -0.20365E-01   -0.74409E+00 12868   0.444E-01    0.546E-01
RMM:  56    -0.113577302120E+03    0.58860E-01   -0.76256E+00 12431   0.481E-01    0.399E-01
RMM:  57    -0.113565785525E+03    0.11517E-01   -0.63367E+00 12985   0.383E-01    0.406E-01
RMM:  58    -0.113543155517E+03    0.22630E-01   -0.52431E+00 12781   0.351E-01    0.322E-01
RMM:  59    -0.113591357070E+03   -0.48202E-01   -0.44749E+00 12663   0.289E-01    0.446E-01
RMM:  60    -0.113551135702E+03    0.40221E-01   -0.66398E+00 12451   0.406E-01    0.216E-01
RMM:  61    -0.113592072253E+03   -0.40937E-01   -0.41597E+00 12860   0.231E-01    0.306E-01
RMM:  62    -0.113659796039E+03   -0.67724E-01   -0.40803E+00 12367   0.260E-01    0.511E-01
RMM:  63    -0.113573871456E+03    0.85925E-01   -0.67268E+00 12265   0.422E-01    0.358E-01
RMM:  64    -0.113601064862E+03   -0.27193E-01   -0.47909E+00 12989   0.311E-01    0.528E-01
RMM:  65    -0.113540576926E+03    0.60488E-01   -0.73126E+00 12373   0.455E-01    0.259E-01
RMM:  66    -0.113573996316E+03   -0.33419E-01   -0.45105E+00 12771   0.265E-01    0.387E-01
RMM:  67    -0.113542400214E+03    0.31596E-01   -0.63099E+00 15376   0.386E-01    0.321E-01
RMM:  68    -0.113553673440E+03   -0.11273E-01   -0.55381E+00 14491   0.321E-01    0.370E-01
RMM:  69    -0.113579434298E+03   -0.25761E-01   -0.48108E+00 13893   0.311E-01    0.420E-01
RMM:  70    -0.113591380436E+03   -0.11946E-01   -0.57014E+00 12421   0.374E-01    0.470E-01
RMM:  71    -0.113556765844E+03    0.34615E-01   -0.80284E+00 13452   0.469E-01    0.376E-01
RMM:  72    -0.113531712763E+03    0.25053E-01   -0.48217E+00 13959   0.322E-01    0.237E-01
RMM:  73    -0.113617479114E+03   -0.85766E-01   -0.38655E+00 14242   0.232E-01    0.534E-01
RMM:  74    -0.113653778695E+03   -0.36300E-01   -0.79009E+00 12397   0.492E-01    0.556E-01
RMM:  75    -0.113577267222E+03    0.76511E-01   -0.93832E+00 12899   0.544E-01    0.345E-01
RMM:  76    -0.113567392918E+03    0.98743E-02   -0.51569E+00 13500   0.319E-01    0.312E-01
RMM:  77    -0.113549734721E+03    0.17658E-01   -0.48963E+00 14239   0.294E-01    0.369E-01
RMM:  78    -0.113599209172E+03   -0.49474E-01   -0.49955E+00 13530   0.324E-01    0.421E-01
RMM:  79    -0.113598663389E+03    0.54578E-03   -0.76794E+00 11984   0.436E-01    0.499E-01
RMM:  80    -0.113597051258E+03    0.16121E-02   -0.72106E+00 12950   0.446E-01
   8 F= -.11359705E+03 E0= -.11360809E+03  d E =-.258734E+00
       N       E                     dE             d eps       ncg     rms          rms(c)
DAV:   1    -0.113453161256E+03    0.14550E+00   -0.30277E+01 14336   0.628E+00    0.389E-01
RMM:   2    -0.113516009700E+03   -0.62848E-01   -0.64892E-01 14609   0.129E+00    0.320E-01
RMM:   3    -0.113515518617E+03    0.49108E-03   -0.60741E-02 17305   0.470E-01    0.284E-01
RMM:   4    -0.113512826701E+03    0.26919E-02   -0.14938E-03 14655   0.634E-02    0.110E-01
RMM:   5    -0.113512950375E+03   -0.12367E-03   -0.37748E-04 16213   0.295E-02    0.111E-01
RMM:   6    -0.113512776486E+03    0.17389E-03   -0.28855E-04 14577   0.234E-02    0.606E-02
RMM:   7    -0.113512623971E+03    0.15251E-03   -0.98784E-05 15860   0.156E-02    0.196E-02
RMM:   8    -0.113512618744E+03    0.52274E-05   -0.13052E-05 14166   0.604E-03    0.999E-03
RMM:   9    -0.113512627543E+03   -0.87996E-05   -0.63742E-06 13305   0.442E-03    0.522E-03
RMM:  10    -0.113512639266E+03   -0.11723E-04    0.46219E-07 12392   0.277E-03    0.289E-03
RMM:  11    -0.113512649836E+03   -0.10569E-04    0.52664E-06 10466   0.162E-03    0.191E-03
RMM:  12    -0.113512667497E+03   -0.17662E-04    0.86909E-06 10865   0.135E-03    0.936E-04
RMM:  13    -0.113512678506E+03   -0.11009E-04    0.15751E-05 10235   0.941E-04    0.663E-04
RMM:  14    -0.113512688686E+03   -0.10180E-04    0.26644E-05  9306   0.806E-04    0.379E-04
RMM:  15    -0.113512692341E+03   -0.36550E-05    0.46457E-05  8741   0.663E-04    0.221E-04
RMM:  16    -0.113512690633E+03    0.17081E-05    0.82473E-05  7702   0.515E-04    0.167E-04
RMM:  17    -0.113512685590E+03    0.50428E-05    0.15326E-04  7465   0.484E-04    0.142E-04
RMM:  18    -0.113512673963E+03    0.11627E-04    0.30933E-04  7132   0.441E-04    0.266E-04
RMM:  19    -0.113512659468E+03    0.14495E-04    0.51126E-04  6978   0.411E-04    0.672E-04
RMM:  20    -0.113512516318E+03    0.14315E-03    0.16012E-03  6913   0.349E-04    0.281E-03
RMM:  21    -0.113513596112E+03   -0.10798E-02    0.29981E-03  6994   0.254E-05    0.436E-02
RMM:  22    -0.113516297345E+03   -0.27012E-02   -0.44237E-02  9394   0.909E-03    0.407E-02
RMM:  23    -0.113518577416E+03   -0.22801E-02   -0.15105E-01  8899   0.153E-02    0.485E-02
RMM:  24    -0.113516014739E+03    0.25627E-02   -0.20581E-01  9464   0.222E-02    0.508E-02
RMM:  25    -0.113521321076E+03   -0.53063E-02   -0.22448E-01  9624   0.233E-02    0.165E-02
RMM:  26    -0.113539471703E+03   -0.18151E-01   -0.25997E-01  9387   0.142E-02    0.156E-01
RMM:  27    -0.113583872252E+03   -0.44401E-01   -0.14486E+00 11178   0.110E-01    0.133E-01
RMM:  28    -0.113624014472E+03   -0.40142E-01   -0.19997E+00 11355   0.114E-01    0.435E-01
RMM:  29    -0.113677926120E+03   -0.53912E-01   -0.30130E+00 12327   0.228E-01    0.651E-01
RMM:  30    -0.113885723737E+03   -0.20780E+00   -0.84781E+00 13504   0.487E-01    0.690E-01
RMM:  31    -0.113766013913E+03    0.11971E+00   -0.79626E+00 13545   0.495E-01    0.666E-01
RMM:  32    -0.113807718764E+03   -0.41705E-01   -0.66344E+00 13586   0.445E-01    0.838E-01
RMM:  33    -0.113808649070E+03   -0.93031E-03   -0.10702E+01 13593   0.682E-01    0.738E-01
RMM:  34    -0.113791348245E+03    0.17301E-01   -0.92965E+00 13290   0.599E-01    0.840E-01
RMM:  35    -0.113658931863E+03    0.13242E+00   -0.11356E+01 13456   0.718E-01    0.472E-01
RMM:  36    -0.113640532627E+03    0.18399E-01   -0.69140E+00 13029   0.425E-01    0.469E-01
RMM:  37    -0.113666861470E+03   -0.26329E-01   -0.56501E+00 13126   0.379E-01    0.494E-01
RMM:  38    -0.113597729384E+03    0.69132E-01   -0.68774E+00 13006   0.427E-01    0.349E-01
RMM:  39    -0.113559566718E+03    0.38163E-01   -0.53824E+00 13155   0.326E-01    0.250E-01
RMM:  40    -0.113586851660E+03   -0.27285E-01   -0.33175E+00 12476   0.211E-01    0.245E-01
RMM:  41    -0.113527584755E+03    0.59267E-01   -0.24114E+00 12077   0.178E-01    0.118E-01
RMM:  42    -0.113524576813E+03    0.30079E-02   -0.11998E+00 11698   0.858E-02    0.145E-01
RMM:  43    -0.113606001892E+03   -0.81425E-01   -0.24782E+00 11121   0.142E-01    0.362E-01
RMM:  44    -0.113676433966E+03   -0.70432E-01   -0.44104E+00 12432   0.282E-01    0.489E-01
RMM:  45    -0.113643301203E+03    0.33133E-01   -0.60951E+00 13095   0.393E-01    0.458E-01
RMM:  46    -0.113661794644E+03   -0.18493E-01   -0.59704E+00 12512   0.385E-01    0.419E-01
RMM:  47    -0.113597449436E+03    0.64345E-01   -0.69710E+00 13146   0.400E-01    0.371E-01
RMM:  48    -0.113648612810E+03   -0.51163E-01   -0.41552E+00 12290   0.280E-01    0.469E-01
RMM:  49    -0.113638892137E+03    0.97207E-02   -0.60536E+00 12665   0.391E-01    0.429E-01
RMM:  50    -0.113736081501E+03   -0.97189E-01   -0.68842E+00 12537   0.402E-01    0.633E-01
RMM:  51    -0.113707566583E+03    0.28515E-01   -0.80346E+00 12723   0.526E-01    0.583E-01
RMM:  52    -0.113618519563E+03    0.89047E-01   -0.76602E+00 13072   0.494E-01    0.431E-01
RMM:  53    -0.113628519139E+03   -0.99996E-02   -0.56330E+00 13102   0.364E-01    0.432E-01
RMM:  54    -0.113553656404E+03    0.74863E-01   -0.63999E+00 12474   0.391E-01    0.281E-01
RMM:  55    -0.113556245733E+03   -0.25893E-02   -0.45150E+00 12517   0.270E-01    0.233E-01
RMM:  56    -0.113559371937E+03   -0.31262E-02   -0.33869E+00 12693   0.211E-01    0.340E-01
RMM:  57    -0.113603012494E+03   -0.43641E-01   -0.48237E+00 11532   0.299E-01    0.321E-01
RMM:  58    -0.113609118630E+03   -0.61061E-02   -0.47698E+00 11862   0.292E-01    0.503E-01
RMM:  59    -0.113677142609E+03   -0.68024E-01   -0.77934E+00 12237   0.467E-01    0.640E-01
RMM:  60    -0.113713053877E+03   -0.35911E-01   -0.99224E+00 12802   0.585E-01    0.528E-01
RMM:  61    -0.113713992532E+03   -0.93865E-03   -0.71183E+00 12896   0.452E-01    0.596E-01
RMM:  62    -0.113678631512E+03    0.35361E-01   -0.78142E+00 13149   0.501E-01    0.694E-01
RMM:  63    -0.113564755594E+03    0.11388E+00   -0.98953E+00 12730   0.611E-01    0.333E-01
RMM:  64    -0.113555768980E+03    0.89866E-02   -0.56054E+00 12765   0.320E-01    0.314E-01
RMM:  65    -0.113560228691E+03   -0.44597E-02   -0.52937E+00 12796   0.306E-01    0.378E-01
RMM:  66    -0.113589696574E+03   -0.29468E-01   -0.56983E+00 12379   0.347E-01    0.373E-01
RMM:  67    -0.113600109309E+03   -0.10413E-01   -0.69223E+00 15401   0.389E-01    0.481E-01
RMM:  68    -0.113569541971E+03    0.30567E-01   -0.57198E+00 12979   0.382E-01    0.389E-01
RMM:  69    -0.113603120463E+03   -0.33578E-01   -0.62635E+00 13475   0.372E-01    0.370E-01
RMM:  70    -0.113692093112E+03   -0.88973E-01   -0.58337E+00 11957   0.347E-01    0.547E-01
RMM:  71    -0.113574574591E+03    0.11752E+00   -0.90205E+00 12836   0.523E-01    0.275E-01
RMM:  72    -0.113594069026E+03   -0.19494E-01   -0.39218E+00 14429   0.249E-01    0.414E-01
RMM:  73    -0.113561718729E+03    0.32350E-01   -0.62855E+00 13837   0.385E-01    0.270E-01
RMM:  74    -0.113573966613E+03   -0.12248E-01   -0.44440E+00 13397   0.264E-01    0.376E-01
RMM:  75    -0.113710567556E+03   -0.13660E+00   -0.53490E+00 12982   0.335E-01    0.638E-01
RMM:  76    -0.113629043485E+03    0.81524E-01   -0.96658E+00 12565   0.580E-01    0.425E-01
RMM:  77    -0.113630063455E+03   -0.10200E-02   -0.72738E+00 14701   0.423E-01    0.502E-01
RMM:  78    -0.113727644361E+03   -0.97581E-01   -0.81869E+00 13269   0.478E-01    0.563E-01
RMM:  79    -0.113611096731E+03    0.11655E+00   -0.10104E+01 12815   0.570E-01    0.328E-01
RMM:  80    -0.113609051466E+03    0.20453E-02   -0.54730E+00 13626   0.324E-01
   9 F= -.11360905E+03 E0= -.11361849E+03  d E =-.270734E+00
       N       E                     dE             d eps       ncg     rms          rms(c)
DAV:   1    -0.113324279625E+03    0.28682E+00   -0.15531E+02 14336   0.154E+01    0.840E-01
RMM:   2    -0.113716662914E+03   -0.39238E+00   -0.39483E+00 14522   0.314E+00    0.669E-01
RMM:   3    -0.113724277649E+03   -0.76147E-02   -0.37139E-01 17318   0.115E+00    0.598E-01
RMM:   4    -0.113710528127E+03    0.13750E-01   -0.68907E-03 14581   0.147E-01    0.253E-01
RMM:   5    -0.113711653219E+03   -0.11251E-02   -0.27597E-03 15821   0.852E-02    0.252E-01
RMM:   6    -0.113710312574E+03    0.13406E-02   -0.19174E-03 14811   0.686E-02    0.108E-01
RMM:   7    -0.113710006434E+03    0.30614E-03   -0.47054E-04 16502   0.362E-02    0.391E-02
RMM:   8    -0.113709968834E+03    0.37601E-04   -0.56617E-05 14674   0.132E-02    0.224E-02
RMM:   9    -0.113709975510E+03   -0.66766E-05   -0.58354E-05 14175   0.126E-02    0.106E-02
RMM:  10    -0.113709985953E+03   -0.10442E-04   -0.77437E-06 15010   0.591E-03    0.614E-03
RMM:  11    -0.113709995566E+03   -0.96131E-05    0.56067E-06 11868   0.252E-03    0.324E-03
RMM:  12    -0.113710007117E+03   -0.11551E-04    0.11454E-05 10838   0.166E-03    0.169E-03
RMM:  13    -0.113710015523E+03   -0.84067E-05    0.21435E-05 10610   0.117E-03    0.105E-03
RMM:  14    -0.113710019622E+03   -0.40986E-05    0.39939E-05  9842   0.802E-04    0.666E-04
RMM:  15    -0.113710019827E+03   -0.20496E-06    0.78095E-05  9103   0.625E-04    0.395E-04
RMM:  16    -0.113710014123E+03    0.57034E-05    0.17036E-04  8326   0.541E-04    0.307E-04
RMM:  17    -0.113709992861E+03    0.21262E-04    0.45175E-04  7866   0.532E-04    0.394E-04
RMM:  18    -0.113709887276E+03    0.10559E-03    0.16282E-03  7239   0.449E-04    0.235E-03
RMM:  19    -0.113709820329E+03    0.66947E-04    0.32549E-03  7480   0.712E-05    0.363E-03
RMM:  20    -0.113709114809E+03    0.70552E-03    0.63768E-03  7335  -0.316E-04    0.113E-02
RMM:  21    -0.113709405819E+03   -0.29101E-03    0.25091E-02  7812  -0.309E-03    0.668E-03
RMM:  22    -0.113709708821E+03   -0.30300E-03    0.12506E-02  7901  -0.476E-04    0.377E-02
RMM:  23    -0.113709282587E+03    0.42623E-03   -0.73790E-02  9115   0.930E-03    0.904E-03
RMM:  24    -0.113717936757E+03   -0.86542E-02    0.31889E-02  8618  -0.220E-03    0.705E-02
RMM:  25    -0.113733151699E+03   -0.15215E-01   -0.74124E-01  9695   0.482E-02    0.104E-01
RMM:  26    -0.113750515822E+03   -0.17364E-01   -0.28546E-01 11158   0.231E-02    0.136E-01
RMM:  27    -0.113755622562E+03   -0.51067E-02   -0.10269E+00 11361   0.649E-02    0.173E-01
RMM:  28    -0.113832030714E+03   -0.76408E-01   -0.17790E+00 12462   0.105E-01    0.487E-01
RMM:  29    -0.113789360985E+03    0.42670E-01   -0.65854E+00 12649   0.408E-01    0.392E-01
RMM:  30    -0.113924379670E+03   -0.13502E+00   -0.39722E+00 13489   0.270E-01    0.580E-01
RMM:  31    -0.113788503531E+03    0.13588E+00   -0.63193E+00 12839   0.408E-01    0.285E-01
RMM:  32    -0.113773144393E+03    0.15359E-01   -0.33898E+00 13375   0.221E-01    0.394E-01
RMM:  33    -0.113783897324E+03   -0.10753E-01   -0.44749E+00 12591   0.295E-01    0.446E-01
RMM:  34    -0.113794292959E+03   -0.10396E-01   -0.41896E+00 12801   0.302E-01    0.411E-01
RMM:  35    -0.113772519658E+03    0.21773E-01   -0.38356E+00 12587   0.282E-01    0.197E-01
RMM:  36    -0.113892605981E+03   -0.12009E+00   -0.28506E+00 12980   0.178E-01    0.566E-01
RMM:  37    -0.113759596894E+03    0.13301E+00   -0.56465E+00 12329   0.397E-01    0.356E-01
RMM:  38    -0.113910077796E+03   -0.15048E+00   -0.50456E+00 13009   0.312E-01    0.565E-01
RMM:  39    -0.113876061889E+03    0.34016E-01   -0.66153E+00 12712   0.430E-01    0.607E-01
RMM:  40    -0.113845765863E+03    0.30296E-01   -0.95523E+00 13198   0.547E-01    0.297E-01
RMM:  41    -0.113733759669E+03    0.11201E+00   -0.32514E+00 12868   0.224E-01    0.146E-01
RMM:  42    -0.113715373387E+03    0.18386E-01   -0.22665E+00 12916   0.134E-01    0.942E-02
RMM:  43    -0.113729939401E+03   -0.14566E-01   -0.83189E-01 12237   0.651E-02    0.198E-01
RMM:  44    -0.113768246455E+03   -0.38307E-01   -0.25299E+00 11138   0.159E-01    0.400E-01
RMM:  45    -0.113801362904E+03   -0.33116E-01   -0.48338E+00 12303   0.316E-01    0.403E-01
RMM:  46    -0.113897574032E+03   -0.96211E-01   -0.51976E+00 12758   0.333E-01    0.763E-01
RMM:  47    -0.113928143186E+03   -0.30569E-01   -0.11425E+01 12569   0.680E-01    0.697E-01
RMM:  48    -0.113816657095E+03    0.11149E+00   -0.99508E+00 13446   0.603E-01    0.488E-01
RMM:  49    -0.113781899440E+03    0.34758E-01   -0.62910E+00 12758   0.400E-01    0.416E-01
RMM:  50    -0.113837578980E+03   -0.55680E-01   -0.52995E+00 12918   0.340E-01    0.511E-01
RMM:  51    -0.113868524999E+03   -0.30946E-01   -0.65476E+00 12567   0.414E-01    0.414E-01
RMM:  52    -0.113819776330E+03    0.48749E-01   -0.50465E+00 12933   0.329E-01    0.221E-01
RMM:  53    -0.113760014221E+03    0.59762E-01   -0.26512E+00 12411   0.176E-01    0.221E-01
RMM:  54    -0.113780194001E+03   -0.20180E-01   -0.28478E+00 12479   0.182E-01    0.391E-01
RMM:  55    -0.113816468914E+03   -0.36275E-01   -0.48305E+00 12103   0.307E-01    0.514E-01
RMM:  56    -0.113757265754E+03    0.59203E-01   -0.73271E+00 12750   0.439E-01    0.376E-01
RMM:  57    -0.113845532886E+03   -0.88267E-01   -0.35818E+00 12624   0.263E-01    0.435E-01
RMM:  58    -0.113802939733E+03    0.42593E-01   -0.49004E+00 12687   0.329E-01    0.470E-01
RMM:  59    -0.113793699643E+03    0.92401E-02   -0.62816E+00 12464   0.394E-01    0.422E-01
RMM:  60    -0.113767623980E+03    0.26076E-01   -0.55273E+00 12825   0.349E-01    0.278E-01
RMM:  61    -0.113739078539E+03    0.28545E-01   -0.41313E+00 12649   0.249E-01    0.257E-01
RMM:  62    -0.113825770689E+03   -0.86692E-01   -0.27253E+00 12048   0.193E-01    0.500E-01
RMM:  63    -0.113747260401E+03    0.78510E-01   -0.70636E+00 12136   0.431E-01    0.347E-01
RMM:  64    -0.113868386332E+03   -0.12113E+00   -0.43857E+00 12933   0.281E-01    0.681E-01
RMM:  65    -0.113832629141E+03    0.35757E-01   -0.82587E+00 12589   0.543E-01    0.393E-01
RMM:  66    -0.113796839857E+03    0.35789E-01   -0.61705E+00 13312   0.357E-01    0.342E-01
RMM:  67    -0.113751839800E+03    0.45000E-01   -0.46205E+00 15212   0.290E-01    0.235E-01
RMM:  68    -0.113822893303E+03   -0.71054E-01   -0.33462E+00 14179   0.207E-01    0.322E-01
RMM:  69    -0.113796024840E+03    0.26868E-01   -0.37459E+00 12823   0.250E-01    0.435E-01
RMM:  70    -0.113827129789E+03   -0.31105E-01   -0.65811E+00 13039   0.389E-01    0.510E-01
RMM:  71    -0.113786468150E+03    0.40662E-01   -0.56769E+00 12527   0.391E-01    0.508E-01
RMM:  72    -0.113826720939E+03   -0.40253E-01   -0.63431E+00 13226   0.402E-01    0.529E-01
RMM:  73    -0.113853873727E+03   -0.27153E-01   -0.59488E+00 12795   0.395E-01    0.416E-01
RMM:  74    -0.113840822420E+03    0.13051E-01   -0.55497E+00 12817   0.343E-01    0.537E-01
RMM:  75    -0.113861867796E+03   -0.21045E-01   -0.81671E+00 13059   0.482E-01    0.495E-01
RMM:  76    -0.113799314223E+03    0.62554E-01   -0.68573E+00 13058   0.416E-01    0.372E-01
RMM:  77    -0.113793392397E+03    0.59218E-02   -0.49700E+00 13733   0.312E-01    0.463E-01
RMM:  78    -0.113811137952E+03   -0.17746E-01   -0.60333E+00 12617   0.376E-01    0.430E-01
RMM:  79    -0.113819136628E+03   -0.79987E-02   -0.54909E+00 13232   0.340E-01    0.406E-01
RMM:  80    -0.113766171533E+03    0.52965E-01   -0.55073E+00 12282   0.341E-01
  10 F= -.11376617E+03 E0= -.11378267E+03  d E =-.157120E+00
       N       E                     dE             d eps       ncg     rms          rms(c)
DAV:   1    -0.113532686838E+03    0.28645E+00   -0.87659E+01 14336   0.112E+01    0.637E-01
RMM:   2    -0.113749904418E+03   -0.21722E+00   -0.22075E+00 14561   0.236E+00    0.464E-01
RMM:   3    -0.113755957150E+03   -0.60527E-02   -0.21277E-01 17363   0.870E-01    0.467E-01
RMM:   4    -0.113747399069E+03    0.85581E-02   -0.39365E-03 14585   0.110E-01    0.190E-01
RMM:   5    -0.113747907345E+03   -0.50828E-03   -0.15536E-03 15653   0.648E-02    0.176E-01
RMM:   6    -0.113747214657E+03    0.69269E-03   -0.10384E-03 14791   0.505E-02    0.736E-02
RMM:   7    -0.113747104202E+03    0.11045E-03   -0.27855E-04 16468   0.273E-02    0.270E-02
RMM:   8    -0.113747085198E+03    0.19004E-04   -0.30317E-05 14297   0.100E-02    0.156E-02
RMM:   9    -0.113747091171E+03   -0.59731E-05   -0.34845E-05 14155   0.979E-03    0.709E-03
RMM:  10    -0.113747097332E+03   -0.61613E-05    0.43790E-07 13590   0.409E-03    0.440E-03
RMM:  11    -0.113747103444E+03   -0.61117E-05    0.80085E-06 10665   0.203E-03    0.247E-03
RMM:  12    -0.113747110150E+03   -0.67057E-05    0.14438E-05 10456   0.154E-03    0.130E-03
RMM:  13    -0.113747114654E+03   -0.45039E-05    0.25791E-05 10158   0.961E-04    0.780E-04
RMM:  14    -0.113747116310E+03   -0.16560E-05    0.46298E-05  9538   0.705E-04    0.437E-04
RMM:  15    -0.113747114622E+03    0.16873E-05    0.87155E-05  8709   0.568E-04    0.262E-04
RMM:  16    -0.113747108462E+03    0.61605E-05    0.17810E-04  7911   0.525E-04    0.189E-04
RMM:  17    -0.113747091476E+03    0.16986E-04    0.41449E-04  7746   0.545E-04    0.369E-04
RMM:  18    -0.113747087027E+03    0.44488E-05    0.56801E-04  7407   0.516E-04    0.502E-04
RMM:  19    -0.113746998197E+03    0.88830E-04    0.13711E-03  7278   0.507E-04    0.225E-03
RMM:  20    -0.113746976000E+03    0.22197E-04    0.32016E-03  7348   0.139E-04    0.242E-03
RMM:  21    -0.113746267629E+03    0.70837E-03    0.32043E-03  7247   0.112E-04    0.873E-03
RMM:  22    -0.113745799030E+03    0.46860E-03    0.60760E-03  7477  -0.763E-04    0.108E-02
RMM:  23    -0.113745944900E+03   -0.14587E-03    0.28211E-02  7378  -0.316E-03    0.861E-03
RMM:  24    -0.113746515634E+03   -0.57073E-03    0.24963E-02  7127  -0.235E-03    0.550E-03
RMM:  25    -0.113760505247E+03   -0.13990E-01    0.48743E-03  7221   0.469E-04    0.989E-02
RMM:  26    -0.113830304109E+03   -0.69799E-01   -0.47072E-01 10715   0.378E-02    0.299E-01
RMM:  27    -0.113784471046E+03    0.45833E-01   -0.24620E+00 12558   0.178E-01    0.173E-01
RMM:  28    -0.113812598252E+03   -0.28127E-01   -0.13283E+00 12377   0.107E-01    0.380E-01
RMM:  29    -0.113991877555E+03   -0.17928E+00   -0.29944E+00 12421   0.217E-01    0.810E-01
RMM:  30    -0.114092609093E+03   -0.10073E+00   -0.61205E+00 13369   0.414E-01    0.943E-01
RMM:  31    -0.113960697131E+03    0.13191E+00   -0.82233E+00 14431   0.545E-01    0.768E-01
RMM:  32    -0.113871257722E+03    0.89439E-01   -0.85756E+00 13416   0.563E-01    0.519E-01
RMM:  33    -0.113839636452E+03    0.31621E-01   -0.64915E+00 13907   0.408E-01    0.487E-01
RMM:  34    -0.113833155071E+03    0.64814E-02   -0.47929E+00 12626   0.333E-01    0.390E-01
RMM:  35    -0.113836795471E+03   -0.36404E-02   -0.46896E+00 13243   0.306E-01    0.472E-01
RMM:  36    -0.113915288749E+03   -0.78493E-01   -0.53140E+00 12687   0.348E-01    0.515E-01
RMM:  37    -0.113839208034E+03    0.76081E-01   -0.45832E+00 13281   0.336E-01    0.353E-01
RMM:  38    -0.113903611617E+03   -0.64404E-01   -0.40131E+00 12516   0.269E-01    0.417E-01
RMM:  39    -0.114017972673E+03   -0.11436E+00   -0.45896E+00 12894   0.309E-01    0.559E-01
RMM:  40    -0.113962382373E+03    0.55590E-01   -0.51244E+00 12395   0.375E-01    0.579E-01
RMM:  41    -0.113776765920E+03    0.18562E+00   -0.78521E+00 13134   0.475E-01    0.240E-01
RMM:  42    -0.113847680857E+03   -0.70915E-01   -0.31173E+00 12512   0.197E-01    0.466E-01
RMM:  43    -0.113777093926E+03    0.70587E-01   -0.44228E+00 12779   0.302E-01    0.187E-01
RMM:  44    -0.113879479445E+03   -0.10239E+00   -0.24621E+00 12572   0.153E-01    0.441E-01
[...]
RMM:  49    -0.114210210136E+03   -0.95914E-01   -0.57791E+00 12849   0.411E-01    0.916E-01
RMM:  50    -0.114138259230E+03    0.71951E-01   -0.11795E+01 13102   0.694E-01    0.661E-01
RMM:  51    -0.114142853675E+03   -0.45944E-02   -0.67569E+00 13276   0.444E-01    0.616E-01
RMM:  52    -0.114111535148E+03    0.31319E-01   -0.58128E+00 13031   0.392E-01    0.641E-01
RMM:  53    -0.114086271179E+03    0.25264E-01   -0.68682E+00 12760   0.445E-01    0.453E-01
RMM:  54    -0.114077866226E+03    0.84050E-02   -0.52253E+00 12604   0.329E-01    0.355E-01
RMM:  55    -0.114053902532E+03    0.23964E-01   -0.42686E+00 12818   0.270E-01    0.313E-01
RMM:  56    -0.114084501753E+03   -0.30599E-01   -0.39428E+00 12541   0.239E-01    0.495E-01
RMM:  57    -0.114124574056E+03   -0.40072E-01   -0.60240E+00 12314   0.366E-01    0.636E-01
RMM:  58    -0.114037821843E+03    0.86752E-01   -0.91205E+00 12894   0.513E-01    0.473E-01
RMM:  59    -0.114072813705E+03   -0.34992E-01   -0.38344E+00 12872   0.282E-01    0.590E-01
RMM:  60    -0.114123386322E+03   -0.50573E-01   -0.68213E+00 12905   0.422E-01    0.647E-01
RMM:  61    -0.114173687746E+03   -0.50301E-01   -0.76666E+00 12931   0.468E-01    0.648E-01
RMM:  62    -0.114094634850E+03    0.79053E-01   -0.67584E+00 12996   0.444E-01    0.517E-01
RMM:  63    -0.114065089045E+03    0.29546E-01   -0.64484E+00 12578   0.387E-01    0.361E-01
RMM:  64    -0.114041772405E+03    0.23317E-01   -0.43702E+00 12669   0.267E-01    0.265E-01
RMM:  65    -0.114009749403E+03    0.32023E-01   -0.35036E+00 12431   0.202E-01    0.433E-01
RMM:  66    -0.114123350005E+03   -0.11360E+00   -0.54076E+00 12505   0.328E-01    0.655E-01
RMM:  67    -0.114047764260E+03    0.75586E-01   -0.93496E+00 15315   0.532E-01    0.513E-01
RMM:  68    -0.114056519124E+03   -0.87549E-02   -0.60418E+00 13837   0.373E-01    0.489E-01
RMM:  69    -0.114052789746E+03    0.37294E-02   -0.47810E+00 13485   0.322E-01    0.503E-01
RMM:  70    -0.114062349711E+03   -0.95600E-02   -0.44831E+00 13847   0.310E-01    0.602E-01
RMM:  71    -0.114150269841E+03   -0.87920E-01   -0.68774E+00 12804   0.432E-01    0.700E-01
RMM:  72    -0.114170271216E+03   -0.20001E-01   -0.85168E+00 15789   0.534E-01    0.737E-01
RMM:  73    -0.114188286940E+03   -0.18016E-01   -0.80048E+00 15394   0.524E-01    0.656E-01
RMM:  74    -0.114187493373E+03    0.79357E-03   -0.80704E+00 14909   0.492E-01    0.673E-01
RMM:  75    -0.114160543259E+03    0.26950E-01   -0.81610E+00 14656   0.495E-01    0.793E-01
RMM:  76    -0.114145646326E+03    0.14897E-01   -0.90007E+00 13614   0.565E-01    0.661E-01
RMM:  77    -0.114145200214E+03    0.44611E-03   -0.75212E+00 14928   0.472E-01    0.761E-01
RMM:  78    -0.114200452464E+03   -0.55252E-01   -0.85147E+00 13941   0.535E-01    0.810E-01
RMM:  79    -0.114088892566E+03    0.11156E+00   -0.10441E+01 12988   0.615E-01    0.525E-01
RMM:  80    -0.114164480293E+03   -0.75588E-01   -0.66706E+00 14383   0.405E-01
  16 F= -.11416448E+03 E0= -.11417146E+03  d E =-.236458E+00
       N       E                     dE             d eps       ncg     rms          rms(c)
DAV:   1    -0.113958106448E+03    0.13079E+00   -0.88970E+00 14336   0.267E+00    0.156E-01
RMM:   2    -0.113966097430E+03   -0.79910E-02   -0.83410E-02 14561   0.477E-01    0.985E-02
RMM:   3    -0.113965888723E+03    0.20871E-03   -0.78437E-03 17264   0.174E-01    0.912E-02
RMM:   4    -0.113965565086E+03    0.32364E-03   -0.19283E-04 14675   0.234E-02    0.400E-02
RMM:   5    -0.113965555528E+03    0.95586E-05   -0.59549E-05 15359   0.114E-02    0.284E-02
RMM:   6    -0.113965555322E+03    0.20543E-06   -0.31651E-05 14282   0.759E-03    0.228E-02
RMM:   7    -0.113965540744E+03    0.14578E-04   -0.10499E-05 13995   0.477E-03    0.608E-03
RMM:   8    -0.113965540484E+03    0.26040E-06   -0.11079E-06 11019   0.229E-03
  17 F= -.11396554E+03 E0= -.11398047E+03  d E =-.375181E-01
       N       E                     dE             d eps       ncg     rms          rms(c)
DAV:   1    -0.113934184837E+03    0.31356E-01   -0.30757E+01 14336   0.627E+00    0.425E-01
RMM:   2    -0.114006954731E+03   -0.72770E-01   -0.77263E-01 14558   0.135E+00    0.239E-01
RMM:   3    -0.114007216620E+03   -0.26189E-03   -0.68872E-02 17196   0.497E-01    0.256E-01
RMM:   4    -0.114005217357E+03    0.19993E-02   -0.14757E-03 14796   0.620E-02    0.119E-01
RMM:   5    -0.114005247164E+03   -0.29807E-04   -0.67256E-04 15012   0.384E-02    0.775E-02
RMM:   6    -0.114005073298E+03    0.17387E-03   -0.35140E-04 15299   0.281E-02    0.437E-02
RMM:   7    -0.114005014135E+03    0.59164E-04   -0.62107E-05 15353   0.118E-02    0.193E-02
RMM:   8    -0.114005005907E+03    0.82280E-05   -0.12110E-05 13512   0.595E-03    0.103E-02
RMM:   9    -0.114005009836E+03   -0.39297E-05   -0.98722E-06 13479   0.512E-03    0.392E-03
RMM:  10    -0.114005012398E+03   -0.25617E-05    0.39221E-06 11756   0.233E-03    0.238E-03
RMM:  11    -0.114005015622E+03   -0.32241E-05    0.84328E-06 10256   0.125E-03    0.121E-03
RMM:  12    -0.114005018148E+03   -0.25253E-05    0.14530E-05  9979   0.844E-04    0.676E-04
RMM:  13    -0.114005019633E+03   -0.14851E-05    0.24852E-05  8980   0.631E-04    0.440E-04
RMM:  14    -0.114005020082E+03   -0.44880E-06    0.40359E-05  8181   0.562E-04    0.253E-04
RMM:  15    -0.114005019336E+03    0.74572E-06    0.59542E-05  7639   0.511E-04    0.156E-04
RMM:  16    -0.114005016937E+03    0.23985E-05    0.94723E-05  7721   0.533E-04    0.103E-04
RMM:  17    -0.114005009815E+03    0.71228E-05    0.18667E-04  7263   0.512E-04    0.171E-04
RMM:  18    -0.114005004633E+03    0.51816E-05    0.28556E-04  7130   0.495E-04    0.231E-04
RMM:  19    -0.114005000779E+03    0.38534E-05    0.36649E-04  7123   0.499E-04    0.497E-04
RMM:  20    -0.114004950542E+03    0.50237E-04    0.88891E-04  7072   0.489E-04    0.146E-03
RMM:  21    -0.114004712971E+03    0.23757E-03    0.28445E-03  7039   0.304E-04    0.640E-03
RMM:  22    -0.114004855367E+03   -0.14240E-03    0.66894E-03  7114  -0.765E-04    0.301E-03
RMM:  23    -0.114004090027E+03    0.76534E-03    0.34434E-03  6888  -0.288E-05    0.972E-03
RMM:  24    -0.114022414913E+03   -0.18325E-01    0.14145E-02  7105  -0.194E-03    0.162E-01
RMM:  25    -0.114004678983E+03    0.17736E-01   -0.42253E-01 10104   0.462E-02    0.655E-03
RMM:  26    -0.114005167877E+03   -0.48889E-03    0.64838E-03 10393   0.700E-04    0.396E-02
RMM:  27    -0.114003898140E+03    0.12697E-02   -0.11882E-01  9518   0.144E-02    0.942E-03
RMM:  28    -0.114003045318E+03    0.85282E-03    0.27747E-02  8923  -0.226E-03    0.137E-02
RMM:  29    -0.114000943695E+03    0.21016E-02   -0.45001E-02  8582   0.521E-03    0.201E-02
RMM:  30    -0.114081855511E+03   -0.80912E-01    0.33603E-02  9098  -0.289E-03    0.321E-01
RMM:  31    -0.114021974731E+03    0.59881E-01   -0.20352E+00 11867   0.163E-01    0.125E-01
RMM:  32    -0.114009211848E+03    0.12763E-01   -0.72365E-01 12518   0.653E-02    0.127E-01
RMM:  33    -0.114119016479E+03   -0.10980E+00   -0.77861E-01 10538   0.622E-02    0.485E-01
RMM:  34    -0.114211851727E+03   -0.92835E-01   -0.23395E+00 12497   0.202E-01    0.844E-01
RMM:  35    -0.114277122793E+03   -0.65271E-01   -0.10142E+01 13717   0.591E-01    0.123E+00
RMM:  36    -0.114171515533E+03    0.10561E+00   -0.12118E+01 14173   0.799E-01    0.826E-01
RMM:  37    -0.114040122333E+03    0.13139E+00   -0.70789E+00 14093   0.506E-01    0.359E-01
RMM:  38    -0.114060933686E+03   -0.20811E-01   -0.27447E+00 13132   0.208E-01    0.339E-01
RMM:  39    -0.114087552529E+03   -0.26619E-01   -0.14484E+00 12672   0.147E-01    0.484E-01
RMM:  40    -0.114135513513E+03   -0.47961E-01   -0.50884E+00 12591   0.323E-01    0.463E-01
RMM:  41    -0.114164146547E+03   -0.28633E-01   -0.28564E+00 12803   0.229E-01    0.527E-01
RMM:  42    -0.114102462496E+03    0.61684E-01   -0.46533E+00 12592   0.319E-01    0.385E-01
RMM:  43    -0.114057579427E+03    0.44883E-01   -0.33596E+00 13061   0.238E-01    0.348E-01
RMM:  44    -0.114074588526E+03   -0.17009E-01   -0.40552E+00 12535   0.246E-01    0.336E-01
RMM:  45    -0.114081318406E+03   -0.67299E-02   -0.38964E+00 12739   0.244E-01    0.452E-01
RMM:  46    -0.114136212918E+03   -0.54895E-01   -0.52416E+00 12279   0.324E-01    0.451E-01
RMM:  47    -0.114081236302E+03    0.54977E-01   -0.53852E+00 12479   0.334E-01    0.515E-01
RMM:  48    -0.114202226258E+03   -0.12099E+00   -0.53167E+00 12408   0.346E-01    0.602E-01
RMM:  49    -0.114192790391E+03    0.94359E-02   -0.63078E+00 12706   0.410E-01    0.510E-01
RMM:  50    -0.114238670413E+03   -0.45880E-01   -0.47994E+00 12998   0.329E-01    0.729E-01
RMM:  51    -0.114263618238E+03   -0.24948E-01   -0.76888E+00 12643   0.500E-01    0.899E-01
RMM:  52    -0.114199646373E+03    0.63972E-01   -0.99006E+00 12914   0.619E-01    0.571E-01
RMM:  53    -0.114156982387E+03    0.42664E-01   -0.72106E+00 13136   0.428E-01    0.660E-01
RMM:  54    -0.114051123692E+03    0.10586E+00   -0.74987E+00 13295   0.471E-01    0.337E-01
RMM:  55    -0.114084579796E+03   -0.33456E-01   -0.45726E+00 12566   0.266E-01    0.393E-01
RMM:  56    -0.114060097508E+03    0.24482E-01   -0.41156E+00 12853   0.264E-01    0.452E-01
RMM:  57    -0.114110677983E+03   -0.50580E-01   -0.35888E+00 12268   0.263E-01    0.580E-01
RMM:  58    -0.114208397261E+03   -0.97719E-01   -0.56178E+00 12505   0.383E-01    0.862E-01
RMM:  59    -0.114163101037E+03    0.45296E-01   -0.82336E+00 12935   0.555E-01    0.573E-01
RMM:  60    -0.114122372059E+03    0.40729E-01   -0.61911E+00 12974   0.401E-01    0.593E-01
RMM:  61    -0.114141481363E+03   -0.19109E-01   -0.72584E+00 12500   0.436E-01    0.668E-01
RMM:  62    -0.114179105442E+03   -0.37624E-01   -0.70683E+00 12618   0.462E-01    0.590E-01
RMM:  63    -0.114144486913E+03    0.34619E-01   -0.81660E+00 13009   0.471E-01    0.754E-01
RMM:  64    -0.114218716528E+03   -0.74230E-01   -0.93560E+00 12738   0.560E-01    0.751E-01
RMM:  65    -0.114311967760E+03   -0.93251E-01   -0.69214E+00 12734   0.481E-01    0.117E+00
RMM:  66    -0.114235518605E+03    0.76449E-01   -0.13179E+01 13569   0.826E-01    0.788E-01
RMM:  67    -0.114113468093E+03    0.12205E+00   -0.85079E+00 13611   0.549E-01    0.365E-01
RMM:  68    -0.114190585042E+03   -0.77117E-01   -0.43349E+00 13202   0.272E-01    0.785E-01
RMM:  69    -0.114223399321E+03   -0.32814E-01   -0.89021E+00 13065   0.559E-01    0.835E-01
RMM:  70    -0.114230454705E+03   -0.70554E-02   -0.82412E+00 12808   0.547E-01    0.930E-01
RMM:  71    -0.114137885004E+03    0.92570E-01   -0.10456E+01 12571   0.649E-01    0.565E-01
RMM:  72    -0.114093235600E+03    0.44649E-01   -0.78593E+00 15565   0.456E-01    0.547E-01
RMM:  73    -0.114121999169E+03   -0.28764E-01   -0.61423E+00 14477   0.392E-01    0.705E-01
RMM:  74    -0.114118265716E+03    0.37335E-02   -0.81082E+00 14446   0.507E-01    0.644E-01
RMM:  75    -0.114119325022E+03   -0.10593E-02   -0.77510E+00 13930   0.474E-01    0.562E-01
RMM:  76    -0.114133871093E+03   -0.14546E-01   -0.57667E+00 13559   0.386E-01    0.688E-01
RMM:  77    -0.114121478318E+03    0.12393E-01   -0.70580E+00 15517   0.467E-01    0.566E-01
RMM:  78    -0.114051378623E+03    0.70100E-01   -0.62926E+00 15252   0.402E-01    0.385E-01
RMM:  79    -0.114061691464E+03   -0.10313E-01   -0.43252E+00 15231   0.276E-01    0.497E-01
RMM:  80    -0.114203824051E+03   -0.14213E+00   -0.58057E+00 14539   0.364E-01
  18 F= -.11420382E+03 E0= -.11421345E+03  d E =-.238284E+00
       N       E                     dE             d eps       ncg     rms          rms(c)
DAV:   1    -0.113996627018E+03    0.65064E-01   -0.10297E+01 14336   0.303E+00    0.179E-01
RMM:   2    -0.114008093751E+03   -0.11467E-01   -0.12184E-01 14550   0.543E-01    0.980E-02
RMM:   3    -0.114008092695E+03    0.10560E-05   -0.10701E-02 17233   0.198E-01    0.104E-01
RMM:   4    -0.114007763569E+03    0.32913E-03   -0.25734E-04 14829   0.266E-02    0.480E-02
RMM:   5    -0.114007779687E+03   -0.16118E-04   -0.10955E-04 15228   0.144E-02    0.385E-02
RMM:   6    -0.114007735200E+03    0.44487E-04   -0.49643E-05 14919   0.974E-03    0.128E-02
RMM:   7    -0.114007730140E+03    0.50601E-05   -0.68506E-06 13663   0.470E-03    0.643E-03
RMM:   8    -0.114007729676E+03    0.46349E-06   -0.95661E-07 10822   0.210E-03
  19 F= -.11400773E+03 E0= -.11402407E+03  d E =-.421892E-01
       N       E                     dE             d eps       ncg     rms          rms(c)
DAV:   1    -0.113992689139E+03    0.15041E-01   -0.19048E+01 14336   0.481E+00    0.288E-01
RMM:   2    -0.114034773284E+03   -0.42084E-01   -0.43515E-01 14532   0.100E+00    0.152E-01
RMM:   3    -0.114036200267E+03   -0.14270E-02   -0.41710E-02 17164   0.361E-01    0.152E-01
RMM:   4    -0.114035449631E+03    0.75064E-03   -0.67527E-04 14857   0.435E-02    0.835E-02
RMM:   5    -0.114035519636E+03   -0.70005E-04   -0.27599E-04 15347   0.228E-02    0.726E-02
RMM:   6    -0.114035422694E+03    0.96943E-04   -0.21664E-04 14697   0.197E-02    0.282E-02
RMM:   7    -0.114035396938E+03    0.25755E-04   -0.36426E-05 14990   0.949E-03    0.110E-02
RMM:   8    -0.114035393889E+03    0.30494E-05   -0.58506E-06 12878   0.406E-03    0.644E-03
RMM:   9    -0.114035395385E+03   -0.14960E-05   -0.35112E-06 12432   0.306E-03    0.297E-03
RMM:  10    -0.114035396596E+03   -0.12109E-05    0.19035E-06 10605   0.163E-03    0.169E-03
RMM:  11    -0.114035398111E+03   -0.15147E-05    0.39211E-06 10150   0.115E-03    0.802E-04
RMM:  12    -0.114035399258E+03   -0.11475E-05    0.68321E-06  9994   0.915E-04    0.498E-04
RMM:  13    -0.114035399943E+03   -0.68514E-06    0.11596E-05  9160   0.762E-04    0.338E-04
RMM:  14    -0.114035400024E+03   -0.80938E-07    0.19652E-05  8164   0.658E-04    0.198E-04
RMM:  15    -0.114035399192E+03    0.83206E-06    0.33693E-05  7777   0.570E-04    0.122E-04
RMM:  16    -0.114035397263E+03    0.19288E-05    0.59192E-05  7368   0.519E-04    0.104E-04
RMM:  17    -0.114035393372E+03    0.38914E-05    0.10905E-04  7127   0.516E-04    0.123E-04
RMM:  18    -0.114035384959E+03    0.84126E-05    0.21826E-04  7064   0.517E-04    0.324E-04
RMM:  19    -0.114035362812E+03    0.22148E-04    0.50478E-04  7149   0.500E-04    0.851E-04
RMM:  20    -0.114035371074E+03   -0.82626E-05    0.55831E-04  7092   0.414E-04    0.605E-04
RMM:  21    -0.114035214021E+03    0.15705E-03    0.11596E-03  6885   0.369E-04    0.420E-03
RMM:  22    -0.114035262983E+03   -0.48963E-04    0.42049E-03  6792  -0.346E-04    0.250E-03
RMM:  23    -0.114035231019E+03    0.31964E-04    0.40860E-03  6626  -0.171E-04    0.445E-03
RMM:  24    -0.114035007846E+03    0.22317E-03    0.42018E-03  6497  -0.314E-04    0.786E-03
RMM:  25    -0.114034302185E+03    0.70566E-03    0.85302E-03  6696  -0.117E-03    0.729E-03
RMM:  26    -0.114034584587E+03   -0.28240E-03   -0.26775E-04  6686  -0.105E-04    0.727E-03
RMM:  27    -0.114037153367E+03   -0.25688E-02    0.13657E-02  6244  -0.171E-03    0.396E-02
RMM:  28    -0.114034649619E+03    0.25037E-02   -0.10048E-01  8703   0.118E-02    0.103E-02
RMM:  29    -0.114033913835E+03    0.73578E-03    0.18802E-02  8473  -0.197E-03    0.138E-02
RMM:  30    -0.114033777159E+03    0.13668E-03   -0.27964E-02  8490   0.353E-03    0.827E-03
RMM:  31    -0.114037501384E+03   -0.37242E-02    0.26040E-02  7997  -0.219E-03    0.268E-02
RMM:  32    -0.114122585262E+03   -0.85084E-01    0.79892E-02  9161  -0.470E-03    0.314E-01
RMM:  33    -0.114084971756E+03    0.37614E-01   -0.13032E+00 11825   0.127E-01    0.800E-02
RMM:  34    -0.114103568472E+03   -0.18597E-01   -0.10436E+00 12711   0.609E-02    0.408E-01
RMM:  35    -0.114473561672E+03   -0.36999E+00   -0.11141E+00 12300   0.915E-02    0.952E-01
RMM:  36    -0.114759429777E+03   -0.28587E+00   -0.24879E+00 13284   0.214E-01    0.150E+00
RMM:  37    -0.114376195220E+03    0.38323E+00   -0.12870E+01 14450   0.734E-01    0.103E+00
RMM:  38    -0.114152564291E+03    0.22363E+00   -0.91909E+00 14571   0.593E-01    0.533E-01
RMM:  39    -0.114268915859E+03   -0.11635E+00   -0.46516E+00 13489   0.307E-01    0.860E-01
RMM:  40    -0.114163047084E+03    0.10587E+00   -0.89936E+00 13383   0.555E-01    0.550E-01
RMM:  41    -0.114121143738E+03    0.41903E-01   -0.44717E+00 13194   0.324E-01    0.516E-01
RMM:  42    -0.114143917146E+03   -0.22773E-01   -0.58386E+00 12845   0.364E-01    0.446E-01
RMM:  43    -0.114123503377E+03    0.20414E-01   -0.44163E+00 12852   0.285E-01    0.439E-01
RMM:  44    -0.114144266373E+03   -0.20763E-01   -0.41705E+00 12499   0.281E-01    0.589E-01
RMM:  45    -0.114159760355E+03   -0.15494E-01   -0.56536E+00 12669   0.375E-01    0.616E-01
RMM:  46    -0.114131917433E+03    0.27843E-01   -0.67269E+00 13026   0.416E-01    0.454E-01
RMM:  47    -0.114132325832E+03   -0.40840E-03   -0.47050E+00 12795   0.302E-01    0.583E-01
RMM:  48    -0.114077688860E+03    0.54637E-01   -0.72056E+00 12725   0.428E-01    0.312E-01
RMM:  49    -0.114097044643E+03   -0.19356E-01   -0.30052E+00 12761   0.203E-01    0.262E-01
RMM:  50    -0.114113164195E+03   -0.16120E-01   -0.28485E+00 12576   0.182E-01    0.419E-01
RMM:  51    -0.114088831683E+03    0.24333E-01   -0.47017E+00 12630   0.295E-01    0.430E-01
RMM:  52    -0.114113369104E+03   -0.24537E-01   -0.39898E+00 12894   0.275E-01    0.500E-01
RMM:  53    -0.114154786956E+03   -0.41418E-01   -0.56300E+00 12525   0.351E-01    0.631E-01
RMM:  54    -0.114179881988E+03   -0.25095E-01   -0.66918E+00 12502   0.427E-01    0.630E-01
RMM:  55    -0.114148097201E+03    0.31785E-01   -0.78336E+00 12775   0.465E-01    0.592E-01
RMM:  56    -0.114127895546E+03    0.20202E-01   -0.56861E+00 13283   0.380E-01    0.540E-01
RMM:  57    -0.114223449659E+03   -0.95554E-01   -0.63692E+00 12256   0.387E-01    0.687E-01
RMM:  58    -0.114134920445E+03    0.88529E-01   -0.63621E+00 12854   0.426E-01    0.584E-01
RMM:  59    -0.114199196261E+03   -0.64276E-01   -0.70363E+00 12739   0.419E-01    0.781E-01
RMM:  60    -0.114177872834E+03    0.21323E-01   -0.73214E+00 12626   0.487E-01    0.605E-01
RMM:  61    -0.114098428547E+03    0.79444E-01   -0.69051E+00 12825   0.421E-01    0.469E-01
RMM:  62    -0.114189563489E+03   -0.91135E-01   -0.50184E+00 12842   0.325E-01    0.596E-01
RMM:  63    -0.114246661003E+03   -0.57098E-01   -0.67086E+00 12533   0.414E-01    0.787E-01
RMM:  64    -0.114108483564E+03    0.13818E+00   -0.96591E+00 12767   0.572E-01    0.510E-01
RMM:  65    -0.114197311702E+03   -0.88828E-01   -0.55302E+00 12815   0.353E-01    0.795E-01
RMM:  66    -0.114149163701E+03    0.48148E-01   -0.86749E+00 12578   0.544E-01    0.645E-01
RMM:  67    -0.114154779441E+03   -0.56157E-02   -0.78180E+00 12698   0.466E-01    0.502E-01
RMM:  68    -0.114129354458E+03    0.25425E-01   -0.42619E+00 12826   0.304E-01    0.522E-01
RMM:  69    -0.114107641836E+03    0.21713E-01   -0.67234E+00 12501   0.393E-01    0.341E-01
RMM:  70    -0.114133407498E+03   -0.25766E-01   -0.36172E+00 12602   0.235E-01    0.473E-01
RMM:  71    -0.114108655467E+03    0.24752E-01   -0.57617E+00 12812   0.345E-01    0.354E-01
RMM:  72    -0.114111379141E+03   -0.27237E-02   -0.50822E+00 13734   0.285E-01    0.459E-01
RMM:  73    -0.114089399124E+03    0.21980E-01   -0.51651E+00 12560   0.321E-01    0.476E-01
RMM:  74    -0.114207736359E+03   -0.11834E+00   -0.47678E+00 13178   0.312E-01    0.795E-01
RMM:  75    -0.114180950262E+03    0.26786E-01   -0.94428E+00 12416   0.566E-01    0.725E-01
RMM:  76    -0.114276362808E+03   -0.95413E-01   -0.75239E+00 13217   0.485E-01    0.906E-01
RMM:  77    -0.114195650990E+03    0.80712E-01   -0.10775E+01 15674   0.666E-01    0.664E-01
RMM:  78    -0.114106878710E+03    0.88772E-01   -0.73680E+00 15579   0.464E-01    0.422E-01
RMM:  79    -0.114097975341E+03    0.89034E-02   -0.46245E+00 15209   0.295E-01    0.414E-01
RMM:  80    -0.114174148813E+03   -0.76173E-01   -0.48883E+00 14806   0.301E-01
  20 F= -.11417415E+03 E0= -.11418077E+03  d E =-.166419E+00
