Tetradymite Slab                        
           1
     3.630884    0.000000   -2.096292
     0.000000   31.174578    0.000000
     0.000000    0.000000   16.770336
   Bi   Se
  12  18
Direct configuration=     1
   0.66666700  0.06252458  0.04166662
   0.66666700  0.27080942  0.04166662
   0.00000000  0.39585758  0.20833338
   0.00000000  0.60414242  0.20833338
   0.33333300  0.72919058  0.12500012
   0.33333300  0.93747542  0.12500012
   0.66666700  0.06252458  0.29166662
   0.66666700  0.27080942  0.29166662
   0.00000000  0.39585758  0.45833338
   0.00000000  0.60414242  0.45833338
   0.33333300  0.72919058  0.37500012
   0.33333300  0.93747542  0.37500012
   0.00000000  0.00000000  0.20833338
   0.33333300  0.11276663  0.12500012
   0.00000000  0.22056637  0.20833338
   0.33333300  0.33333300  0.12500012
   0.66666700  0.44610063  0.04166662
   0.33333300  0.55389937  0.12500012
   0.66666700  0.66666700  0.04166662
   0.00000000  0.77943363  0.20833338
   0.66666700  0.88723337  0.04166662
   0.00000000  0.00000000  0.45833338
   0.33333300  0.11276663  0.37500012
   0.00000000  0.22056637  0.45833338
   0.33333300  0.33333300  0.37500012
   0.66666700  0.44610063  0.29166662
   0.33333300  0.55389937  0.37500012
   0.66666700  0.66666700  0.29166662
   0.00000000  0.77943363  0.45833338
   0.66666700  0.88723337  0.29166662
Direct configuration=     2
   0.66666700  0.06252458  0.04166662
   0.67697270  0.27135025  0.04681947
  -0.00856244  0.39686855  0.20405215
  -0.01338642  0.60396901  0.20164016
   0.32968117  0.72752199  0.12317421
   0.33006288  0.93490353  0.12336506
   0.66666700  0.06252458  0.29166662
   0.66666700  0.27080942  0.29166662
  -0.01033068  0.39533511  0.45316804
  -0.00824787  0.60340710  0.45420944
   0.33678964  0.73173904  0.37672844
   0.33705095  0.93913968  0.37685910
  -0.00218454  0.00052876  0.20724111
   0.32562920  0.11179780  0.12114822
  -0.00681311  0.22102740  0.20492682
   0.33333300  0.33333300  0.12500012
   0.67294032  0.44547245  0.04480328
   0.33785867  0.55450050  0.12726296
   0.67368076  0.66717263  0.04517351
   0.00353873  0.77913665  0.21010274
   0.66984221  0.88857795  0.04325423
   0.00000000  0.00000000  0.45833338
   0.33333300  0.11276663  0.37500012
  -0.00625596  0.22120091  0.45520540
   0.33959046  0.33436821  0.37812885
   0.67342692  0.44562819  0.29504659
   0.34094509  0.55486730  0.37880617
   0.66895676  0.66613743  0.29281150
  -0.00322146  0.77806212  0.45672265
   0.66290631  0.88756279  0.28978628
Direct configuration=     3
   0.66666700  0.06252458  0.04166662
   0.70194793  0.27266092  0.05930709
  -0.02931300  0.39931857  0.19367687
  -0.04582762  0.60354876  0.18541956
   0.32083117  0.72347825  0.11874921
   0.32213793  0.92867073  0.11940259
   0.66666700  0.06252458  0.29166662
   0.66666700  0.27080942  0.29166662
  -0.03536645  0.39406891  0.44065015
  -0.02823608  0.60162512  0.44421534
   0.34516660  0.73791505  0.38091692
   0.34606116  0.94317291  0.38136421
  -0.00747863  0.00181018  0.20459406
   0.30695950  0.10944991  0.11181337
  -0.02332427  0.22214467  0.19667124
   0.33333300  0.33333300  0.12500012
   0.68814333  0.44395008  0.05240479
   0.34882635  0.55595731  0.13274680
   0.69067820  0.66839799  0.05367222
   0.01211462  0.77841693  0.21439068
   0.67753712  0.89183646  0.04710169
   0.00000000  0.00000000  0.45833338
   0.33333300  0.11276663  0.37500012
  -0.02141689  0.22273869  0.44762493
   0.35475504  0.33687698  0.38571114
   0.68980920  0.44448327  0.30323772
   0.35939254  0.55721303  0.38802989
   0.67450585  0.66485405  0.29558605
  -0.01102847  0.77473834  0.45281914
   0.65379250  0.88836113  0.28522937
Direct configuration=     4
   0.66666700  0.06252458  0.04166662
   0.69268308  0.27217471  0.05467467
  -0.02161534  0.39840971  0.19752570
  -0.03379319  0.60370466  0.19143678
   0.32411418  0.72497832  0.12039071
   0.32507778  0.93098286  0.12087251
   0.66666700  0.06252458  0.29166662
   0.66666700  0.27080942  0.29166662
  -0.02607914  0.39453862  0.44529380
  -0.02082122  0.60228617  0.44792277
   0.34205907  0.73562399  0.37936316
   0.34271872  0.94167674  0.37969298
  -0.00551472  0.00133482  0.20557601
   0.31388524  0.11032089  0.11527624
  -0.01719926  0.22173020  0.19973374
   0.33333300  0.33333300  0.12500012
   0.68250359  0.44451482  0.04958492
   0.34475776  0.55541689  0.13071251
   0.68437280  0.66794343  0.05051953
   0.00893329  0.77868391  0.21280002
   0.67468261  0.89062767  0.04567443
   0.00000000  0.00000000  0.45833338
   0.33333300  0.11276663  0.37500012
  -0.01579277  0.22216823  0.45043699
   0.34912956  0.33594632  0.38289841
   0.68373200  0.44490799  0.30019913
   0.35254925  0.55634286  0.38460825
   0.67244735  0.66533014  0.29455680
  -0.00813237  0.77597133  0.45426719
   0.65717337  0.88806498  0.28691981
Direct configuration=     5
   0.66666700  0.06252458  0.04166662
   0.69769870  0.27426274  0.05718247
  -0.02847806  0.39959700  0.19409435
  -0.03966673  0.60469163  0.18850001
   0.32391147  0.72429189  0.12028936
   0.32819502  0.93112564  0.12243113
   0.66666700  0.06252458  0.29166662
   0.66666700  0.27080942  0.29166662
  -0.03321254  0.39283058  0.44172711
  -0.02740524  0.60400339  0.44463076
   0.33772633  0.73544397  0.37719679
   0.34480176  0.94330916  0.38073450
  -0.01058068  0.00202099  0.20304304
   0.30688712  0.10983347  0.11177718
  -0.01816583  0.22129523  0.19925046
   0.33333300  0.33333300  0.12500012
   0.68556716  0.44428975  0.05111670
   0.34476518  0.55460171  0.13071621
   0.68889306  0.66799439  0.05277965
   0.01010321  0.77789950  0.21338498
   0.66939707  0.88958409  0.04303166
   0.00000000  0.00000000  0.45833338
   0.33333300  0.11276663  0.37500012
  -0.02427856  0.22311479  0.44619409
   0.35854551  0.33686341  0.38760638
   0.68609921  0.44533137  0.30138273
   0.35385146  0.55569056  0.38525935
   0.67716264  0.66444848  0.29691444
  -0.00269214  0.77708227  0.45698731
   0.65692777  0.88857540  0.28679701
Direct configuration=     6
   0.66666700  0.06252458  0.04166662
   0.70437334  0.27704143  0.06051980
  -0.03761078  0.40117702  0.18952799
  -0.04748308  0.60600506  0.18459184
   0.32364171  0.72337840  0.12015448
   0.33234335  0.93131564  0.12450530
   0.66666700  0.06252458  0.29166662
   0.66666700  0.27080942  0.29166662
  -0.04270546  0.39055757  0.43698064
  -0.03616707  0.60628863  0.44024984
   0.33196044  0.73520440  0.37431385
   0.34757381  0.94548155  0.38212053
  -0.01732232  0.00293413  0.19967222
   0.29757421  0.10918483  0.10712073
  -0.01945212  0.22071638  0.19860731
   0.33333300  0.33333300  0.12500012
   0.68964406  0.44399023  0.05315516
   0.34477505  0.55351690  0.13072115
   0.69490849  0.66806221  0.05578737
   0.01166010  0.77685561  0.21416342
   0.66236321  0.88819532  0.03951473
   0.00000000  0.00000000  0.45833338
   0.33333300  0.11276663  0.37500012
  -0.03557123  0.22437445  0.44054776
   0.37107600  0.33808385  0.39387163
   0.68924943  0.44589478  0.30295784
   0.35558441  0.55482250  0.38612583
   0.68343762  0.66327518  0.30005193
   0.00454757  0.77856067  0.46060716
   0.65660092  0.88925465  0.28663359
Direct configuration=     7
   0.66666700  0.06252458  0.04166662
   0.70199550  0.27605152  0.05933087
  -0.03435725  0.40061414  0.19115475
  -0.04469850  0.60553715  0.18598412
   0.32373781  0.72370383  0.12020253
   0.33086551  0.93124795  0.12376638
   0.66666700  0.06252458  0.29166662
   0.66666700  0.27080942  0.29166662
  -0.03932360  0.39136733  0.43867157
  -0.03304566  0.60547451  0.44181054
   0.33401454  0.73528975  0.37534090
   0.34658626  0.94470764  0.38162676
  -0.01492061  0.00260883  0.20087307
   0.30089193  0.10941591  0.10877959
  -0.01899388  0.22092260  0.19883643
   0.33333300  0.33333300  0.12500012
   0.68819166  0.44409694  0.05242896
   0.34477153  0.55390336  0.13071939
   0.69276549  0.66803805  0.05471587
   0.01110546  0.77722750  0.21388610
   0.66486903  0.88869007  0.04076764
   0.00000000  0.00000000  0.45833338
   0.33333300  0.11276663  0.37500012
  -0.03154821  0.22392570  0.44255927
   0.36661201  0.33764907  0.39163963
   0.68812717  0.44569406  0.30239671
   0.35496704  0.55513175  0.38581715
   0.68120215  0.66369317  0.29893420
   0.00196842  0.77803399  0.45931759
   0.65671736  0.88901267  0.28669181
Direct configuration=     8
   0.66666700  0.06252458  0.04166662
   0.70608400  0.27888773  0.06137512
  -0.02994100  0.40107918  0.19336287
  -0.04483081  0.60469334  0.18591797
   0.32453698  0.72413419  0.12060211
   0.33039232  0.93078214  0.12352978
   0.66666700  0.06252458  0.29166662
   0.66666700  0.27080942  0.29166662
  -0.03879310  0.39032741  0.43893682
  -0.03798839  0.60696804  0.43933918
   0.33755418  0.73563976  0.37711072
   0.34687942  0.94598884  0.38177334
  -0.02208560  0.00340086  0.19729057
   0.29607938  0.10974434  0.10637332
  -0.01918167  0.22076339  0.19874254
   0.33333300  0.33333300  0.12500012
   0.68010525  0.44555689  0.04838575
   0.34375896  0.55330408  0.13021310
   0.69139035  0.66828155  0.05402830
   0.00823763  0.77652126  0.21245219
   0.66125455  0.88802267  0.03896040
   0.00000000  0.00000000  0.45833338
   0.33333300  0.11276663  0.37500012
  -0.04007954  0.22504815  0.43829361
   0.37416958  0.33710088  0.39541842
   0.68570382  0.44663343  0.30118503
   0.35492397  0.55467430  0.38579561
   0.68447053  0.66311142  0.30056839
   0.00497050  0.77859107  0.46081863
   0.65920139  0.88990373  0.28793382
Direct configuration=     9
   0.66666700  0.06252458  0.04166662
   0.70777514  0.28006088  0.06222070
  -0.02811430  0.40127154  0.19427623
  -0.04488554  0.60434432  0.18589061
   0.32486754  0.72431220  0.12076739
   0.33019659  0.93058946  0.12343192
   0.66666700  0.06252458  0.29166662
   0.66666700  0.27080942  0.29166662
  -0.03857367  0.38989727  0.43904654
  -0.04003287  0.60758581  0.43831694
   0.33901830  0.73578454  0.37784277
   0.34700068  0.94651879  0.38183397
  -0.02504929  0.00372847  0.19580873
   0.29408875  0.10988019  0.10537800
  -0.01925934  0.22069754  0.19870370
   0.33333300  0.33333300  0.12500012
   0.67676043  0.44616078  0.04671334
   0.34334012  0.55305620  0.13000369
   0.69082154  0.66838227  0.05374390
   0.00705139  0.77622914  0.21185907
   0.65975948  0.88774661  0.03821286
   0.00000000  0.00000000  0.45833338
   0.33333300  0.11276663  0.37500012
  -0.04360839  0.22551243  0.43652918
   0.37729565  0.33687413  0.39698145
   0.68470144  0.44702198  0.30068385
   0.35490616  0.55448508  0.38578670
   0.68582244  0.66287078  0.30124434
   0.00621226  0.77882150  0.46143951
   0.66022888  0.89027230  0.28844756
Direct configuration=    10
   0.66666700  0.06252458  0.04166662
   0.71113746  0.28197899  0.06390186
  -0.02955795  0.40361467  0.19355440
  -0.04421268  0.60283537  0.18622703
   0.32348152  0.72503736  0.12007439
   0.32565480  0.92939999  0.12116102
   0.66666700  0.06252458  0.29166662
   0.66666700  0.27080942  0.29166662
  -0.03527130  0.39038761  0.44069773
  -0.03995293  0.60752592  0.43835691
   0.34566167  0.73675751  0.38116446
   0.34625902  0.94725143  0.38146313
  -0.03396486  0.00465243  0.19135095
   0.29145797  0.11086229  0.10406261
  -0.02186423  0.22156129  0.19740126
   0.33333300  0.33333300  0.12500012
   0.67549129  0.44655505  0.04607877
   0.34205464  0.55255983  0.12936094
   0.68909282  0.66849449  0.05287954
   0.00526620  0.77546823  0.21096648
   0.65827594  0.88754822  0.03747109
   0.00000000  0.00000000  0.45833338
   0.33333300  0.11276663  0.37500012
  -0.04632911  0.22609050  0.43516882
   0.38276507  0.33529291  0.39971616
   0.68193042  0.44718119  0.29929834
   0.35478812  0.55479373  0.38572768
   0.68388977  0.66328945  0.30027801
   0.00733120  0.77897304  0.46199897
   0.66448239  0.89136628  0.29057432
Direct configuration=    11
   0.66666700  0.06252458  0.04166662
   0.71368078  0.28342988  0.06517351
  -0.03064996  0.40538705  0.19300839
  -0.04370372  0.60169398  0.18648151
   0.32243312  0.72558588  0.11955018
   0.32221931  0.92850025  0.11944328
   0.66666700  0.06252458  0.29166662
   0.66666700  0.27080942  0.29166662
  -0.03277332  0.39075851  0.44194671
  -0.03989246  0.60748062  0.43838714
   0.35068683  0.73749349  0.38367704
   0.34569801  0.94780562  0.38118263
  -0.04070875  0.00535133  0.18797900
   0.28946799  0.11160517  0.10306762
  -0.02383462  0.22221464  0.19641607
   0.33333300  0.33333300  0.12500012
   0.67453128  0.44685329  0.04559877
   0.34108228  0.55218436  0.12887476
   0.68778519  0.66857938  0.05222572
   0.00391585  0.77489268  0.21029130
   0.65715376  0.88739816  0.03691000
   0.00000000  0.00000000  0.45833338
   0.33333300  0.11276663  0.37500012
  -0.04838712  0.22652776  0.43413982
   0.38690224  0.33409685  0.40178475
   0.67983438  0.44730163  0.29825031
   0.35469883  0.55502720  0.38568304
   0.68242787  0.66360614  0.29954706
   0.00817758  0.77908766  0.46242217
   0.66769981  0.89219379  0.29218303
Direct configuration=    12
   0.66666700  0.06252458  0.04166662
   0.71110025  0.28421378  0.06388325
  -0.03158062  0.40713587  0.19254307
  -0.04381856  0.60124474  0.18642409
   0.31647114  0.72575893  0.11656919
   0.31949400  0.92758071  0.11808063
   0.66666700  0.06252458  0.29166662
   0.66666700  0.27080942  0.29166662
  -0.03318830  0.39125005  0.44173922
  -0.03909865  0.60760901  0.43878405
   0.35285668  0.73773171  0.38476196
   0.34411983  0.94797902  0.38039354
  -0.05072850  0.00620136  0.18296913
   0.28863537  0.11279950  0.10265131
  -0.02749011  0.22332352  0.19458832
   0.33333300  0.33333300  0.12500012
   0.67120960  0.44782828  0.04393793
   0.33822454  0.55091580  0.12744590
   0.68911637  0.66827553  0.05289131
   0.00699765  0.77417071  0.21183220
   0.65403535  0.88657188  0.03535080
   0.00000000  0.00000000  0.45833338
   0.33333300  0.11276663  0.37500012
  -0.04192106  0.22611544  0.43737284
   0.39424672  0.33325808  0.40545698
   0.68204915  0.44729669  0.29935770
   0.35431407  0.55526092  0.38549066
   0.68037756  0.66412636  0.29852190
   0.01269430  0.78026203  0.46468052
   0.67084605  0.89351082  0.29375615
Direct configuration=    13
   0.66666700  0.06252458  0.04166662
   0.70940913  0.28472751  0.06303769
  -0.03219051  0.40828193  0.19223812
  -0.04389382  0.60095033  0.18638647
   0.31256401  0.72587234  0.11461563
   0.31770801  0.92697811  0.11718763
   0.66666700  0.06252458  0.29166662
   0.66666700  0.27080942  0.29166662
  -0.03346025  0.39157217  0.44160325
  -0.03857843  0.60769315  0.43904416
   0.35427866  0.73788782  0.38547296
   0.34308558  0.94809265  0.37987642
  -0.05729483  0.00675842  0.17968596
   0.28808972  0.11358220  0.10237849
  -0.02988570  0.22405020  0.19339053
   0.33333300  0.33333300  0.12500012
   0.66903278  0.44846722  0.04284951
   0.33635175  0.55008447  0.12650950
   0.68998875  0.66807640  0.05332750
   0.00901727  0.77369757  0.21284201
   0.65199173  0.88603038  0.03432899
   0.00000000  0.00000000  0.45833338
   0.33333300  0.11276663  0.37500012
  -0.03768360  0.22584523  0.43949157
   0.39905984  0.33270841  0.40786354
   0.68350058  0.44729346  0.30008341
   0.35406192  0.55541409  0.38536459
   0.67903391  0.66446728  0.29785008
   0.01565428  0.78103164  0.46616051
   0.67290790  0.89437392  0.29478708
Direct configuration=    14
   0.66666700  0.06252458  0.04166662
   0.70131236  0.28445721  0.05898931
  -0.03548501  0.40831250  0.19059087
  -0.04482178  0.60082594  0.18592248
   0.30793852  0.72591833  0.11230288
   0.31732406  0.92697334  0.11699565
   0.66666700  0.06252458  0.29166662
   0.66666700  0.27080942  0.29166662
  -0.03293934  0.39080740  0.44186371
  -0.04084944  0.60841869  0.43790865
   0.35653501  0.73798098  0.38660113
   0.34399967  0.94820680  0.38033346
  -0.05965556  0.00596199  0.17850559
   0.28858125  0.11393719  0.10262425
  -0.03016552  0.22424507  0.19325061
   0.33333300  0.33333300  0.12500012
   0.66749023  0.44938772  0.04207824
   0.33517427  0.54950652  0.12592076
   0.69196942  0.66778134  0.05431783
   0.01120108  0.77313686  0.21393392
   0.64909173  0.88494689  0.03287899
   0.00000000  0.00000000  0.45833338
   0.33333300  0.11276663  0.37500012
  -0.03581705  0.22609258  0.44042485
   0.40387117  0.33306644  0.41026921
   0.68686059  0.44827407  0.30176342
   0.35400281  0.55552444  0.38533503
   0.68050486  0.66406370  0.29858556
   0.01748766  0.78167294  0.46707720
   0.67117007  0.89477891  0.29391816
Direct configuration=    15
   0.66666700  0.06252458  0.04166662
   0.70011239  0.28441715  0.05838932
  -0.03597327  0.40831703  0.19034674
  -0.04495931  0.60080750  0.18585372
   0.30725300  0.72592515  0.11196012
   0.31726716  0.92697264  0.11696720
   0.66666700  0.06252458  0.29166662
   0.66666700  0.27080942  0.29166662
  -0.03286213  0.39069406  0.44190231
  -0.04118601  0.60852622  0.43774037
   0.35686941  0.73799479  0.38676833
   0.34413515  0.94822372  0.38040120
  -0.06000543  0.00584395  0.17833066
   0.28865410  0.11398980  0.10266068
  -0.03020699  0.22427395  0.19322988
   0.33333300  0.33333300  0.12500012
   0.66726162  0.44952414  0.04196394
   0.33499976  0.54942087  0.12583350
   0.69226296  0.66773762  0.05446461
   0.01152473  0.77305376  0.21409574
   0.64866194  0.88478631  0.03266410
   0.00000000  0.00000000  0.45833338
   0.33333300  0.11276663  0.37500012
  -0.03554042  0.22612924  0.44056316
   0.40458423  0.33311950  0.41062574
   0.68735856  0.44841940  0.30201240
   0.35399405  0.55554080  0.38533065
   0.68072286  0.66400389  0.29869456
   0.01775937  0.78176799  0.46721306
   0.67091251  0.89483894  0.29378938
Direct configuration=    16
   0.66666700  0.06252458  0.04166662
   0.69571037  0.28403864  0.05618831
  -0.04293224  0.40890603  0.18686726
  -0.04509542  0.60004218  0.18578567
   0.30445022  0.72616725  0.11055874
   0.31546251  0.92626024  0.11606488
   0.66666700  0.06252458  0.29166662
   0.66666700  0.27080942  0.29166662
  -0.03197766  0.39039603  0.44234455
  -0.04301405  0.60883889  0.43682635
   0.36145009  0.73807827  0.38905867
   0.34729760  0.94802724  0.38198243
  -0.05981692  0.00483318  0.17842491
   0.28892175  0.11361373  0.10279450
  -0.03229477  0.22484725  0.19218599
   0.33333300  0.33333300  0.12500012
   0.67031786  0.45001358  0.04349205
   0.33483686  0.54943360  0.12575205
   0.69347093  0.66780111  0.05506859
   0.01112813  0.77224557  0.21389744
   0.64804656  0.88411211  0.03235640
   0.00000000  0.00000000  0.45833338
   0.33333300  0.11276663  0.37500012
  -0.03776877  0.22715062  0.43944899
   0.40711919  0.33347679  0.41189322
   0.69070106  0.44866526  0.30368365
   0.35410717  0.55598825  0.38538721
   0.68113012  0.66365096  0.29889819
   0.01767864  0.78205830  0.46717269
   0.66582355  0.89522221  0.29124490
Direct configuration=    17
   0.66666700  0.06252458  0.04166662
   0.69674653  0.28412774  0.05670639
  -0.04129422  0.40876739  0.18768626
  -0.04506338  0.60022233  0.18580168
   0.30510995  0.72611026  0.11088860
   0.31588729  0.92642793  0.11627727
   0.66666700  0.06252458  0.29166662
   0.66666700  0.27080942  0.29166662
  -0.03218585  0.39046618  0.44224045
  -0.04258377  0.60876529  0.43704149
   0.36037188  0.73805862  0.38851956
   0.34655322  0.94807349  0.38161023
  -0.05986129  0.00507110  0.17840273
   0.28885875  0.11370225  0.10276300
  -0.03180334  0.22471231  0.19243170
   0.33333300  0.33333300  0.12500012
   0.66959848  0.44989837  0.04313236
   0.33487520  0.54943060  0.12577123
   0.69318660  0.66778617  0.05492642
   0.01122148  0.77243580  0.21394412
   0.64819141  0.88427080  0.03242883
   0.00000000  0.00000000  0.45833338
   0.33333300  0.11276663  0.37500012
  -0.03724425  0.22691020  0.43971125
   0.40652251  0.33339269  0.41159488
   0.68991429  0.44860739  0.30329027
   0.35408054  0.55588293  0.38537390
   0.68103426  0.66373403  0.29885026
   0.01769764  0.78198996  0.46718220
   0.66702140  0.89513199  0.29184383
Direct configuration=    18
   0.66666700  0.06252458  0.04166662
   0.69689649  0.28409702  0.05678137
  -0.04108461  0.40881111  0.18779107
  -0.04396437  0.59957840  0.18635119
   0.30376832  0.72640228  0.11021779
   0.31237239  0.92574437  0.11451982
   0.66666700  0.06252458  0.29166662
   0.66666700  0.27080942  0.29166662
  -0.03131185  0.39090680  0.44267745
  -0.04194424  0.60874351  0.43736125
   0.36334051  0.73793957  0.39000388
   0.35049209  0.94742121  0.38357967
  -0.05912724  0.00452100  0.17876975
   0.28908916  0.11309279  0.10287821
  -0.03478118  0.22517642  0.19094279
   0.33333300  0.33333300  0.12500012
   0.66793332  0.45101263  0.04229978
   0.33462904  0.54952372  0.12564815
   0.69356350  0.66803370  0.05511488
   0.01064448  0.77159842  0.21365561
   0.64864566  0.88381148  0.03265596
   0.00000000  0.00000000  0.45833338
   0.33333300  0.11276663  0.37500012
  -0.03901933  0.22776369  0.43882371
   0.40669534  0.33338623  0.41168130
   0.69188057  0.44811026  0.30427341
   0.35389549  0.55617044  0.38528137
   0.67967796  0.66377978  0.29817211
   0.01719717  0.78221505  0.46693196
   0.66283048  0.89548829  0.28974837
Direct configuration=    19
   0.66666700  0.06252458  0.04166662
   0.69695637  0.28408475  0.05681131
  -0.04100090  0.40882857  0.18783293
  -0.04352547  0.59932124  0.18657064
   0.30323254  0.72651890  0.10994989
   0.31096868  0.92547138  0.11381797
   0.66666700  0.06252458  0.29166662
   0.66666700  0.27080942  0.29166662
  -0.03096281  0.39108277  0.44285197
  -0.04168884  0.60873482  0.43748895
   0.36452606  0.73789203  0.39059665
   0.35206511  0.94716071  0.38436618
  -0.05883410  0.00430131  0.17891633
   0.28918118  0.11284940  0.10292422
  -0.03597040  0.22536177  0.19034817
   0.33333300  0.33333300  0.12500012
   0.66726832  0.45145762  0.04196729
   0.33453073  0.54956091  0.12559899
   0.69371402  0.66813255  0.05519014
   0.01041405  0.77126400  0.21354040
   0.64882708  0.88362804  0.03274666
   0.00000000  0.00000000  0.45833338
   0.33333300  0.11276663  0.37500012
  -0.03972823  0.22810454  0.43846926
   0.40676437  0.33338366  0.41171581
   0.69266582  0.44791173  0.30466604
   0.35382159  0.55628526  0.38524442
   0.67913632  0.66379804  0.29790128
   0.01699730  0.78230494  0.46683202
   0.66115680  0.89563058  0.28891153
Direct configuration=    20
   0.66666700  0.06252458  0.04166662
   0.69706803  0.28430144  0.05686714
  -0.04212377  0.40910069  0.18727149
  -0.04256431  0.59918124  0.18705122
   0.30191118  0.72669952  0.10928922
   0.30801604  0.92534574  0.11234165
   0.66666700  0.06252458  0.29166662
   0.66666700  0.27080942  0.29166662
  -0.02939642  0.39123111  0.44363516
  -0.04134668  0.60889314  0.43766003
   0.36564243  0.73768390  0.39115484
   0.35577350  0.94637338  0.38622037
  -0.05879518  0.00411087  0.17893579
   0.28961713  0.11250332  0.10314219
  -0.03791735  0.22543829  0.18937470
   0.33333300  0.33333300  0.12500012
   0.66780433  0.45212616  0.04223529
   0.33396358  0.54944766  0.12531541
   0.69419898  0.66825865  0.05543261
   0.01093101  0.77062303  0.21379888
   0.64842625  0.88297576  0.03254625
   0.00000000  0.00000000  0.45833338
   0.33333300  0.11276663  0.37500012
  -0.03939368  0.22853399  0.43863654
   0.40659988  0.33343116  0.41163356
   0.69283239  0.44758549  0.30474932
   0.35369547  0.55635833  0.38518136
   0.67866312  0.66375993  0.29766468
   0.01678782  0.78255633  0.46672729
   0.65887378  0.89599933  0.28777001
