 vasp.5.4.4.18Apr17-6-g9f103f2a35 (build Aug 29 2022 10:07:22) complex          
  
 executed on           IFC91_ompi date 2022.09.30  21:51:26
 running on  512 total cores
 distrk:  each k-point on  512 cores,    1 groups
 distr:  one band on NCORES_PER_BAND=   4 cores,  128 groups


--------------------------------------------------------------------------------------------------------


 INCAR:
 POTCAR:   PAW_PBE Bi_d 06Sep2000                 
 POTCAR:   PAW_PBE Te 08Apr2002                   

 ----------------------------------------------------------------------------- 
|                                                                             |
|           W    W    AA    RRRRR   N    N  II  N    N   GGGG   !!!           |
|           W    W   A  A   R    R  NN   N  II  NN   N  G    G  !!!           |
|           W    W  A    A  R    R  N N  N  II  N N  N  G       !!!           |
|           W WW W  AAAAAA  RRRRR   N  N N  II  N  N N  G  GGG   !            |
|           WW  WW  A    A  R   R   N   NN  II  N   NN  G    G                |
|           W    W  A    A  R    R  N    N  II  N    N   GGGG   !!!           |
|                                                                             |
|      For optimal performance we recommend to set                            |
|        NCORE= 4 - approx SQRT( number of cores)                             |
|      NCORE specifies how many cores store one orbital (NPAR=cpu/NCORE).     |
|      This setting can  greatly improve the performance of VASP for DFT.     |
|      The default,   NCORE=1            might be grossly inefficient         |
|      on modern multi-core architectures or massively parallel machines.     |
|      Do your own testing !!!!                                               |
|      Unfortunately you need to use the default for GW and RPA calculations. |
|      (for HF NCORE is supported but not extensively tested yet)             |
|                                                                             |
 ----------------------------------------------------------------------------- 

 POTCAR:   PAW_PBE Bi_d 06Sep2000                 
   VRHFIN =Bi:                                                                  
   LEXCH  = PE                                                                  
   EATOM  =  1958.6135 eV,  143.9540 Ry                                         
                                                                                
   TITEL  = PAW_PBE Bi_d 06Sep2000                                              
   LULTRA =        F    use ultrasoft PP ?                                      
   IUNSCR =        1    unscreen: 0-lin 1-nonlin 2-no                           
   RPACOR =    2.200    partial core radius                                     
   POMASS =  208.980; ZVAL   =   15.000    mass and valenz                      
   RCORE  =    2.500    outmost cutoff radius                                   
   RWIGS  =    3.090; RWIGS  =    1.635    wigner-seitz radius (au A)           
   ENMAX  =  242.851; ENMIN  =  182.138 eV                                      
   ICORE  =        3    local potential                                         
   LCOR   =        T    correct aug charges                                     
   LPAW   =        T    paw PP                                                  
   EAUG   =  442.899                                                            
   DEXC   =    -.001                                                            
   RMAX   =    2.959    core radius for proj-oper                               
   RAUG   =    1.300    factor for augmentation sphere                          
   RDEP   =    2.650    radius for radial grids                                 
   QCUT   =   -4.225; QGAM   =    8.450    optimization parameters              
                                                                                
   Description                                                                  
     l     E      TYP  RCUT    TYP  RCUT                                        
     2   .000     23  2.500                                                     
     2  -.100     23  2.500                                                     
     0   .000     23  2.500                                                     
     0   .500     23  2.500                                                     
     1   .000     23  2.500                                                     
     1  1.000     23  2.500                                                     
     3  -.100      7  2.500                                                     
  local pseudopotential read in
  partial core-charges read in
  atomic valenz-charges read in
  non local Contribution for L=           2  read in
    real space projection operators read in
  non local Contribution for L=           2  read in
    real space projection operators read in
  non local Contribution for L=           0  read in
    real space projection operators read in
  non local Contribution for L=           0  read in
    real space projection operators read in
  non local Contribution for L=           1  read in
    real space projection operators read in
  non local Contribution for L=           1  read in
    real space projection operators read in
    PAW grid and wavefunctions read in
 
   number of l-projection  operators is LMAX  =           6
   number of lm-projection operators is LMMAX =          18
 
 POTCAR:   PAW_PBE Te 08Apr2002                   
   VRHFIN =Te: s2p4                                                             
   LEXCH  = PE                                                                  
   EATOM  =   223.2721 eV,   16.4100 Ry                                         
                                                                                
   TITEL  = PAW_PBE Te 08Apr2002                                                
   LULTRA =        F    use ultrasoft PP ?                                      
   IUNSCR =        1    unscreen: 0-lin 1-nonlin 2-no                           
   RPACOR =    2.200    partial core radius                                     
   POMASS =  127.600; ZVAL   =    6.000    mass and valenz                      
   RCORE  =    2.300    outmost cutoff radius                                   
   RWIGS  =    2.900; RWIGS  =    1.535    wigner-seitz radius (au A)           
   ENMAX  =  174.982; ENMIN  =  131.236 eV                                      
   ICORE  =        3    local potential                                         
   LCOR   =        T    correct aug charges                                     
   LPAW   =        T    paw PP                                                  
   EAUG   =  368.792                                                            
   DEXC   =    -.169                                                            
   RMAX   =    3.486    core radius for proj-oper                               
   RAUG   =    1.300    factor for augmentation sphere                          
   RDEP   =    2.397    radius for radial grids                                 
   QCUT   =   -3.586; QGAM   =    7.172    optimization parameters              
                                                                                
   Description                                                                  
     l     E      TYP  RCUT    TYP  RCUT                                        
     0   .000     23  2.300                                                     
     0   .000     23  2.300                                                     
     1   .000     23  2.300                                                     
     1   .000     23  2.300                                                     
     2   .000     23  2.300                                                     
     3  -.100     23  2.300                                                     
  local pseudopotential read in
  partial core-charges read in
  atomic valenz-charges read in
  non local Contribution for L=           0  read in
    real space projection operators read in
  non local Contribution for L=           0  read in
    real space projection operators read in
  non local Contribution for L=           1  read in
    real space projection operators read in
  non local Contribution for L=           1  read in
    real space projection operators read in
  non local Contribution for L=           2  read in
    real space projection operators read in
    PAW grid and wavefunctions read in
 
   number of l-projection  operators is LMAX  =           5
   number of lm-projection operators is LMMAX =          13
 

 ----------------------------------------------------------------------------- 
|                                                                             |
|  ADVICE TO THIS USER RUNNING 'VASP/VAMP'   (HEAR YOUR MASTER'S VOICE ...):  |
|                                                                             |
|      You have a (more or less) 'large supercell' and for larger cells       |
|      it might be more efficient to use real space projection operators      |
|      So try LREAL= Auto  in the INCAR   file.                               |
|      Mind: If you want to do a very accurate calculations keep the          |
|      reciprocal projection scheme          (i.e. LREAL=.FALSE.)             |
|                                                                             |
 ----------------------------------------------------------------------------- 

 PAW_PBE Bi_d 06Sep2000                 :
 energy of atom  1       EATOM=-1958.6135
 kinetic energy error for atom=    0.0516 (will be added to EATOM!!)
 PAW_PBE Te 08Apr2002                   :
 energy of atom  2       EATOM= -223.2721
 kinetic energy error for atom=    0.0026 (will be added to EATOM!!)
 
 
 POSCAR: Bi12 Te18                               
  positions in direct lattice
  No initial velocities read in
 exchange correlation table for  LEXCH =        8
   RHO(1)=    0.500       N(1)  =     2000
   RHO(2)=  100.500       N(2)  =     4000
 


--------------------------------------------------------------------------------------------------------


 ion  position               nearest neighbor table
   1  0.333  0.667  0.026-  15 3.09  15 3.09  15 3.09  17 3.29  17 3.29  17 3.29
   2  0.333  0.667  0.224-  13 3.09  13 3.09  13 3.09  14 3.29  14 3.29  14 3.29
   3  0.000  0.000  0.109-  18 3.09  18 3.09  18 3.09  20 3.29  20 3.29  20 3.29
   4  0.000  0.000  0.058-  16 3.09  16 3.09  16 3.09  17 3.29  17 3.29  17 3.29
   5  0.667  0.333  0.192-  21 3.09  21 3.09  21 3.09  14 3.29  14 3.29  14 3.29
   6  0.667  0.333  0.141-  19 3.09  19 3.09  19 3.09  20 3.29  20 3.29  20 3.29
   7  0.333  0.667  0.276-  24 3.09  24 3.09  24 3.09  26 3.29  26 3.29  26 3.29
   8  0.333  0.667  0.474-  22 3.09  22 3.09  22 3.09  23 3.29  23 3.29  23 3.29
   9  0.000  0.000  0.359-  27 3.09  27 3.09  27 3.09  29 3.29  29 3.29  29 3.29
  10  0.000  0.000  0.308-  25 3.09  25 3.09  25 3.09  26 3.29  26 3.29  26 3.29
  11  0.667  0.333  0.442-  30 3.09  30 3.09  30 3.09  23 3.29  23 3.29  23 3.29
  12  0.667  0.333  0.391-  28 3.09  28 3.09  28 3.09  29 3.29  29 3.29  29 3.29
  13  0.667  0.333  0.238-   2 3.09   2 3.09   2 3.09
  14  0.000  0.000  0.208-   2 3.29   5 3.29   2 3.29   2 3.29   5 3.29   5 3.29
  15  0.000  0.000  0.012-   1 3.09   1 3.09   1 3.09
  16  0.333  0.667  0.071-   4 3.09   4 3.09   4 3.09
  17  0.667  0.333  0.042-   1 3.29   1 3.29   1 3.29   4 3.29   4 3.29   4 3.29
  18  0.667  0.333  0.095-   3 3.09   3 3.09   3 3.09
  19  0.000  0.000  0.155-   6 3.09   6 3.09   6 3.09
  20  0.333  0.667  0.125-   6 3.29   6 3.29   6 3.29   3 3.29   3 3.29   3 3.29
  21  0.333  0.667  0.179-   5 3.09   5 3.09   5 3.09
  22  0.667  0.333  0.488-   8 3.09   8 3.09   8 3.09
  23  0.000  0.000  0.458-   8 3.29  11 3.29   8 3.29   8 3.29  11 3.29  11 3.29
  24  0.000  0.000  0.262-   7 3.09   7 3.09   7 3.09
  25  0.333  0.667  0.321-  10 3.09  10 3.09  10 3.09
  26  0.667  0.333  0.292-   7 3.29   7 3.29   7 3.29  10 3.29  10 3.29  10 3.29
  27  0.667  0.333  0.345-   9 3.09   9 3.09   9 3.09
  28  0.000  0.000  0.405-  12 3.09  12 3.09  12 3.09
  29  0.333  0.667  0.375-  12 3.29  12 3.29  12 3.29   9 3.29   9 3.29   9 3.29
  30  0.333  0.667  0.429-  11 3.09  11 3.09  11 3.09
 
  LATTYP: Found a hexagonal cell.
 ALAT       =     4.4508843174
 C/A-ratio  =    28.7023057342
  
  Lattice vectors:
  
 A1 = (   4.4508839933,   0.0000000000,   0.0000000000)
 A2 = (  -2.2254416726,   3.8545787946,   0.0000000000)
 A3 = (   0.0000000000,   0.0000000000, 127.7506424653)


Analysis of symmetry for initial positions (statically):
=====================================================================
 Subroutine PRICEL returns:
 Original cell was already a primitive cell.
 

 Routine SETGRP: Setting up the symmetry group for a 
 hexagonal supercell.


 Subroutine GETGRP returns: Found 12 space group operations
 (whereof  6 operations were pure point group operations)
 out of a pool of 24 trial point group operations.


The static configuration has the point symmetry C_3v.
 The point group associated with its full space group is D_3d.


Analysis of symmetry for dynamics (positions and initial velocities):
=====================================================================
 Subroutine PRICEL returns:
 Original cell was already a primitive cell.
 

 Routine SETGRP: Setting up the symmetry group for a 
 hexagonal supercell.


 Subroutine GETGRP returns: Found 12 space group operations
 (whereof  6 operations were pure point group operations)
 out of a pool of 24 trial point group operations.


The dynamic configuration has the point symmetry C_3v.
 The point group associated with its full space group is D_3d.


Analysis of constrained symmetry for selective dynamics:
=====================================================================
 Subroutine PRICEL returns:
 Original cell was already a primitive cell.
 

 Routine SETGRP: Setting up the symmetry group for a 
 hexagonal supercell.


 Subroutine GETGRP returns: Found  6 space group operations
 (whereof  6 operations were pure point group operations)
 out of a pool of 24 trial point group operations.


The constrained configuration has the point symmetry C_3v.


 Subroutine INISYM returns: Found  6 space group operations
 (whereof  6 operations are pure point group operations),
 and found     1 'primitive' translations

 
 
 KPOINTS: k-point density of [50, 50, 50]/[a, b, c

Automatic generation of k-mesh.
Space group operators:
 irot       det(A)        alpha          n_x          n_y          n_z        tau_x        tau_y        tau_z
    1     1.000000     0.000000     1.000000     0.000000     0.000000     0.000000     0.000000     0.000000
    2     1.000000   120.000000     0.000000     0.000000    -1.000000     0.000000     0.000000     0.000000
    3     1.000000   120.000000     0.000000    -0.000000     1.000000     0.000000     0.000000     0.000000
    4    -1.000000   180.000000     1.000000    -0.000000     0.000000     0.000000     0.000000     0.000000
    5    -1.000000   180.000000     0.500000    -0.866025     0.000000     0.000000     0.000000     0.000000
    6    -1.000000   180.000000    -0.500000    -0.866025     0.000000     0.000000     0.000000     0.000000
 
 Subroutine IBZKPT returns following result:
 ===========================================
 
 Found     19 irreducible k-points:
 
 Following reciprocal coordinates:
            Coordinates               Weight
  0.000000  0.000000  0.000000      1.000000
  0.083333  0.000000  0.000000      6.000000
  0.166667  0.000000  0.000000      6.000000
  0.250000  0.000000  0.000000      6.000000
  0.333333  0.000000  0.000000      6.000000
  0.416667  0.000000  0.000000      6.000000
  0.500000  0.000000  0.000000      3.000000
  0.083333  0.083333  0.000000      6.000000
  0.166667  0.083333  0.000000     12.000000
  0.250000  0.083333  0.000000     12.000000
  0.333333  0.083333  0.000000     12.000000
  0.416667  0.083333  0.000000     12.000000
  0.166667  0.166667  0.000000      6.000000
  0.250000  0.166667  0.000000     12.000000
  0.333333  0.166667  0.000000     12.000000
  0.416667  0.166667  0.000000      6.000000
  0.250000  0.250000  0.000000      6.000000
  0.333333  0.250000  0.000000     12.000000
  0.333333  0.333333  0.000000      2.000000
 
 Following cartesian coordinates:
            Coordinates               Weight
  0.000000  0.000000  0.000000      1.000000
  0.018723  0.010810  0.000000      6.000000
  0.037446  0.021619  0.000000      6.000000
  0.056169  0.032429  0.000000      6.000000
  0.074891  0.043239  0.000000      6.000000
  0.093614  0.054048  0.000000      6.000000
  0.112337  0.064858  0.000000      3.000000
  0.018723  0.032429  0.000000      6.000000
  0.037446  0.043239  0.000000     12.000000
  0.056169  0.054048  0.000000     12.000000
  0.074891  0.064858  0.000000     12.000000
  0.093614  0.075668  0.000000     12.000000
  0.037446  0.064858  0.000000      6.000000
  0.056169  0.075668  0.000000     12.000000
  0.074891  0.086477  0.000000     12.000000
  0.093614  0.097287  0.000000      6.000000
  0.056169  0.097287  0.000000      6.000000
  0.074891  0.108097  0.000000     12.000000
  0.074891  0.129716  0.000000      2.000000
 


--------------------------------------------------------------------------------------------------------




 Dimension of arrays:
   k-points           NKPTS =     19   k-points in BZ     NKDIM =     19   number of bands    NBANDS=    256
   number of dos      NEDOS =    301   number of ions     NIONS =     30
   non local maximal  LDIM  =      6   non local SUM 2l+1 LMDIM =     18
   total plane-waves  NPLWV = 588000
   max r-space proj   IRMAX =      1   max aug-charges    IRDMAX=  15802
   dimension x,y,z NGX =    28 NGY =   28 NGZ =  750
   dimension x,y,z NGXF=    56 NGYF=   56 NGZF= 1500
   support grid    NGXF=    56 NGYF=   56 NGZF= 1500
   ions per type =              12  18
   NGX,Y,Z   is equivalent  to a cutoff of  10.46, 10.46,  9.76 a.u.
   NGXF,Y,Z  is equivalent  to a cutoff of  20.92, 20.92, 19.52 a.u.

 SYSTEM =  Tetradymite Slab                        
 POSCAR =  Bi12 Te18                               

 Startparameter for this run:
   NWRITE =      2    write-flag & timer
   PREC   = accura    normal or accurate (medium, high low for compatibility)
   ISTART =      0    job   : 0-new  1-cont  2-samecut
   ICHARG =      2    charge: 1-file 2-atom 10-const
   ISPIN  =      1    spin polarized calculation?
   LNONCOLLINEAR =      F non collinear calculations
   LSORBIT =      F    spin-orbit coupling
   INIWAV =      1    electr: 0-lowe 1-rand  2-diag
   LASPH  =      F    aspherical Exc in radial PAW
   METAGGA=      F    non-selfconsistent MetaGGA calc.

 Electronic Relaxation 1
   ENCUT  =  300.0 eV  22.05 Ry    4.70 a.u.   6.29  6.29180.42*2*pi/ulx,y,z
   ENINI  =  300.0     initial cutoff
   ENAUG  =  442.9 eV  augmentation charge cutoff
   NELM   =     80;   NELMIN=  2; NELMDL= -5     # of ELM steps 
   EDIFF  = 0.1E-05   stopping-criterion for ELM
   LREAL  =      F    real-space projection
   NLSPLINE    = F    spline interpolate recip. space projectors
   LCOMPAT=      F    compatible to vasp.4.4
   GGA_COMPAT  = T    GGA compatible to vasp.4.4-vasp.4.6
   LMAXPAW     = -100 max onsite density
   LMAXMIX     =    2 max onsite mixed and CHGCAR
   VOSKOWN=      0    Vosko Wilk Nusair interpolation
   ROPT   =    0.00000   0.00000
 Ionic relaxation
   EDIFFG = -.1E-01   stopping-criterion for IOM
   NSW    =     20    number of steps for IOM
   NBLOCK =      1;   KBLOCK =     20    inner block; outer block 
   IBRION =      2    ionic relax: 0-MD 1-quasi-New 2-CG
   NFREE  =      1    steps in history (QN), initial steepest desc. (CG)
   ISIF   =      2    stress and relaxation
   IWAVPR =     11    prediction:  0-non 1-charg 2-wave 3-comb
   ISYM   =      2    0-nonsym 1-usesym 2-fastsym
   LCORR  =      T    Harris-Foulkes like correction to forces

   POTIM  = 0.5000    time-step for ionic-motion
   TEIN   =    0.0    initial temperature
   TEBEG  =    0.0;   TEEND  =   0.0 temperature during run
   SMASS  =  -3.00    Nose mass-parameter (am)
   estimated Nose-frequenzy (Omega)   =  0.10E-29 period in steps =****** mass=  -0.453E-27a.u.
   SCALEE = 1.0000    scale energy and forces
   NPACO  =    256;   APACO  = 16.0  distance and # of slots for P.C.
   PSTRESS=    0.0 pullay stress

  Mass of Ions in am
   POMASS = 208.98127.60
  Ionic Valenz
   ZVAL   =  15.00  6.00
  Atomic Wigner-Seitz radii
   RWIGS  =  -1.00 -1.00
  virtual crystal weights 
   VCA    =   1.00  1.00
   NELECT =     288.0000    total number of electrons
   NUPDOWN=      -1.0000    fix difference up-down

 DOS related values:
   EMIN   =  10.00;   EMAX   =-10.00  energy-range for DOS
   EFERMI =   0.00
   ISMEAR =     1;   SIGMA  =   0.20  broadening in eV -4-tet -1-fermi 0-gaus

 Electronic relaxation 2 (details)
   IALGO  =     68    algorithm
   LDIAG  =      T    sub-space diagonalisation (order eigenvalues)
   LSUBROT=      F    optimize rotation matrix (better conditioning)
   TURBO    =      0    0=normal 1=particle mesh
   IRESTART =      0    0=no restart 2=restart with 2 vectors
   NREBOOT  =      0    no. of reboots
   NMIN     =      0    reboot dimension
   EREF     =   0.00    reference energy to select bands
   IMIX   =      4    mixing-type and parameters
     AMIX     =   0.40;   BMIX     =  1.00
     AMIX_MAG =   1.60;   BMIX_MAG =  1.00
     AMIN     =   0.10
     WC   =   100.;   INIMIX=   1;  MIXPRE=   1;  MAXMIX= -45

 Intra band minimization:
   WEIMIN = 0.0010     energy-eigenvalue tresh-hold
   EBREAK =  0.98E-09  absolut break condition
   DEPER  =   0.30     relativ break condition  

   TIME   =   0.40     timestep for ELM

  volume/ion in A,a.u.               =      73.06       493.02
  Fermi-wavevector in a.u.,A,eV,Ry     =   0.832294  1.572808  9.424942  0.692714
  Thomas-Fermi vector in A             =   1.945326
 
 Write flags
   LWAVE        =      T    write WAVECAR
   LDOWNSAMPLE  =      F    k-point downsampling of WAVECAR
   LCHARG       =      T    write CHGCAR
   LVTOT        =      F    write LOCPOT, total local potential
   LVHAR        =      F    write LOCPOT, Hartree potential only
   LELF         =      F    write electronic localiz. function (ELF)
   LORBIT       =     11    0 simple, 1 ext, 2 COOP (PROOUT), +10 PAW based schemes


 Dipole corrections
   LMONO  =      F    monopole corrections only (constant potential shift)
   LDIPOL =      F    correct potential (dipole corrections)
   IDIPOL =      0    1-x, 2-y, 3-z, 4-all directions 
   EPSILON=  1.0000000 bulk dielectric constant

 Exchange correlation treatment:
   GGA     =    --    GGA type
   LEXCH   =     8    internal setting for exchange type
   VOSKOWN=      0    Vosko Wilk Nusair interpolation
   LHFCALC =     F    Hartree Fock is set to
   LHFONE  =     F    Hartree Fock one center treatment
   AEXX    =    0.0000 exact exchange contribution

 Linear response parameters
   LEPSILON=     F    determine dielectric tensor
   LRPA    =     F    only Hartree local field effects (RPA)
   LNABLA  =     F    use nabla operator in PAW spheres
   LVEL    =     F    velocity operator in full k-point grid
   LINTERFAST=   F  fast interpolation
   KINTER  =     0    interpolate to denser k-point grid
   CSHIFT  =0.1000    complex shift for real part using Kramers Kronig
   OMEGAMAX=  -1.0    maximum frequency
   DEG_THRESHOLD= 0.2000000E-02 threshold for treating states as degnerate
   RTIME   =   -0.100 relaxation time in fs
  (WPLASMAI=    0.000 imaginary part of plasma frequency in eV, 0.658/RTIME)
   DFIELD  = 0.0000000 0.0000000 0.0000000 field for delta impulse in time
 
 Orbital magnetization related:
   ORBITALMAG=     F  switch on orbital magnetization
   LCHIMAG   =     F  perturbation theory with respect to B field
   DQ        =  0.001000  dq finite difference perturbation B field
   LLRAUG    =     F  two centre corrections for induced B field


 ----------------------------------------------------------------------------- 
|                                                                             |
|           W    W    AA    RRRRR   N    N  II  N    N   GGGG   !!!           |
|           W    W   A  A   R    R  NN   N  II  NN   N  G    G  !!!           |
|           W    W  A    A  R    R  N N  N  II  N N  N  G       !!!           |
|           W WW W  AAAAAA  RRRRR   N  N N  II  N  N N  G  GGG   !            |
|           WW  WW  A    A  R   R   N   NN  II  N   NN  G    G                |
|           W    W  A    A  R    R  N    N  II  N    N   GGGG   !!!           |
|                                                                             |
|      One of the lattice vectors is very long (>50 A), but AMIN is rather    |
|      large. This can spoil convergence since charge sloshing might occur    |
|      along the long lattice vector. If problems with convergence are        |
|      observed, try to decrease AMIN to a smaller values (e.g. 0.01).        |
|      Note: this warning only applies if the selfconsistency cycle is used.  |
|                                                                             |
 ----------------------------------------------------------------------------- 



--------------------------------------------------------------------------------------------------------


 conjugate gradient relaxation of ions
   using selective dynamics as specified on POSCAR
 charge density and potential will be updated during run
 non-spin polarized calculation
 RMM-DIIS sequential band-by-band and
  variant of blocked Davidson during initial phase
 perform sub-space diagonalisation
    before iterative eigenvector-optimisation
 modified Broyden-mixing scheme, WC =      100.0
 initial mixing is a Kerker type mixing with AMIX =  0.4000 and BMIX =      1.0000
 Hartree-type preconditioning will be used
 using additional bands          112
 reciprocal scheme for non local part
 use partial core corrections
 calculate Harris-corrections to forces 
   (improved forces if not selfconsistent)
 use gradient corrections 
 use of overlap-Matrix (Vanderbilt PP)
 Methfessel and Paxton  Order N= 1 SIGMA  =   0.20


--------------------------------------------------------------------------------------------------------


  energy-cutoff  :      300.00
  volume of cell :     2191.73
      direct lattice vectors                 reciprocal lattice vectors
     4.450883993  0.000000000  0.000000000     0.224674469  0.129715840  0.000000000
    -2.225441673  3.854578795  0.000000000     0.000000000  0.259431718  0.000000000
     0.000000000  0.000000000127.750642465    -0.000000000 -0.000000000  0.007827749

  length of vectors
     4.450883993  4.450883993127.750642465     0.259431718  0.259431718  0.007827749


 
 k-points in units of 2pi/SCALE and weight: k-point density of [50, 50, 50]/[a, b, c
   0.00000000  0.00000000  0.00000000       0.007
   0.01872287  0.01080965  0.00000000       0.042
   0.03744574  0.02161931  0.00000000       0.042
   0.05616862  0.03242896  0.00000000       0.042
   0.07489149  0.04323861  0.00000000       0.042
   0.09361436  0.05404827  0.00000000       0.042
   0.11233723  0.06485792  0.00000000       0.021
   0.01872287  0.03242896  0.00000000       0.042
   0.03744574  0.04323862  0.00000000       0.083
   0.05616862  0.05404827  0.00000000       0.083
   0.07489149  0.06485792  0.00000000       0.083
   0.09361436  0.07566758  0.00000000       0.083
   0.03744574  0.06485793  0.00000000       0.042
   0.05616862  0.07566758  0.00000000       0.083
   0.07489149  0.08647723  0.00000000       0.083
   0.09361436  0.09728689  0.00000000       0.042
   0.05616862  0.09728689  0.00000000       0.042
   0.07489149  0.10809654  0.00000000       0.083
   0.07489149  0.12971585  0.00000000       0.014
 
 k-points in reciprocal lattice and weights: k-point density of [50, 50, 50]/[a, b, c
   0.00000000  0.00000000  0.00000000       0.007
   0.08333333  0.00000000  0.00000000       0.042
   0.16666667  0.00000000  0.00000000       0.042
   0.25000000  0.00000000  0.00000000       0.042
   0.33333333  0.00000000  0.00000000       0.042
   0.41666667  0.00000000  0.00000000       0.042
   0.50000000  0.00000000  0.00000000       0.021
   0.08333333  0.08333333  0.00000000       0.042
   0.16666667  0.08333333  0.00000000       0.083
   0.25000000  0.08333333  0.00000000       0.083
   0.33333333  0.08333333  0.00000000       0.083
   0.41666667  0.08333333  0.00000000       0.083
   0.16666667  0.16666667  0.00000000       0.042
   0.25000000  0.16666667  0.00000000       0.083
   0.33333333  0.16666667  0.00000000       0.083
   0.41666667  0.16666667  0.00000000       0.042
   0.25000000  0.25000000  0.00000000       0.042
   0.33333333  0.25000000  0.00000000       0.083
   0.33333333  0.33333333  0.00000000       0.014
 
 position of ions in fractional coordinates (direct lattice) 
   0.33333300  0.66666700  0.02561972
   0.33333300  0.66666700  0.22438053
   0.00000000  0.00000000  0.10895297
   0.00000000  0.00000000  0.05771378
   0.66666700  0.33333300  0.19228622
   0.66666700  0.33333300  0.14104703
   0.33333300  0.66666700  0.27561972
   0.33333300  0.66666700  0.47438053
   0.00000000  0.00000000  0.35895297
   0.00000000  0.00000000  0.30771378
   0.66666700  0.33333300  0.44228622
   0.66666700  0.33333300  0.39104703
   0.66666700  0.33333300  0.23787157
   0.00000000  0.00000000  0.20833338
   0.00000000  0.00000000  0.01212843
   0.33333300  0.66666700  0.07120507
   0.66666700  0.33333300  0.04166663
   0.66666700  0.33333300  0.09546168
   0.00000000  0.00000000  0.15453832
   0.33333300  0.66666700  0.12500012
   0.33333300  0.66666700  0.17879518
   0.66666700  0.33333300  0.48787157
   0.00000000  0.00000000  0.45833338
   0.00000000  0.00000000  0.26212843
   0.33333300  0.66666700  0.32120507
   0.66666700  0.33333300  0.29166663
   0.66666700  0.33333300  0.34546168
   0.00000000  0.00000000  0.40453832
   0.33333300  0.66666700  0.37500012
   0.33333300  0.66666700  0.42879518
 
 position of ions in cartesian coordinates  (Angst):
  -0.00000201  2.56972048  3.27293538
  -0.00000201  2.56972048 28.66475717
   0.00000000  0.00000000 13.91881161
   0.00000000  0.00000000  7.37297278
   2.22544433  1.28485831 24.56468784
   2.22544433  1.28485831 18.01884901
  -0.00000201  2.56972048 35.21059600
  -0.00000201  2.56972048 60.60241779
   0.00000000  0.00000000 45.85647223
   0.00000000  0.00000000 39.31063340
   2.22544433  1.28485831 56.50234845
   2.22544433  1.28485831 49.95650962
   2.22544433  1.28485831 30.38824623
   0.00000000  0.00000000 26.61472250
   0.00000000  0.00000000  1.54941438
  -0.00000201  2.56972048  9.09649378
   2.22544433  1.28485831  5.32293811
   2.22544433  1.28485831 12.19529061
   0.00000000  0.00000000 19.74237001
  -0.00000201  2.56972048 15.96884628
  -0.00000201  2.56972048 22.84119877
   2.22544433  1.28485831 62.32590685
   0.00000000  0.00000000 58.55238312
   0.00000000  0.00000000 33.48707500
  -0.00000201  2.56972048 41.03415440
   2.22544433  1.28485831 37.26059873
   2.22544433  1.28485831 44.13295123
   0.00000000  0.00000000 51.68003062
  -0.00000201  2.56972048 47.90650689
  -0.00000201  2.56972048 54.77885939
 


--------------------------------------------------------------------------------------------------------


 k-point  1 :   0.0000 0.0000 0.0000  plane waves:   26005
 k-point  2 :   0.0833 0.0000 0.0000  plane waves:   25945
 k-point  3 :   0.1667 0.0000 0.0000  plane waves:   25855
 k-point  4 :   0.2500 0.0000 0.0000  plane waves:   25867
 k-point  5 :   0.3333 0.0000 0.0000  plane waves:   25863
 k-point  6 :   0.4167 0.0000 0.0000  plane waves:   25915
 k-point  7 :   0.5000 0.0000 0.0000  plane waves:   25916
 k-point  8 :   0.0833 0.0833 0.0000  plane waves:   25901
 k-point  9 :   0.1667 0.0833 0.0000  plane waves:   25898
 k-point 10 :   0.2500 0.0833 0.0000  plane waves:   25870
 k-point 11 :   0.3333 0.0833 0.0000  plane waves:   25899
 k-point 12 :   0.4167 0.0833 0.0000  plane waves:   25868
 k-point 13 :   0.1667 0.1667 0.0000  plane waves:   25888
 k-point 14 :   0.2500 0.1667 0.0000  plane waves:   25863
 k-point 15 :   0.3333 0.1667 0.0000  plane waves:   25857
 k-point 16 :   0.4167 0.1667 0.0000  plane waves:   25858
 k-point 17 :   0.2500 0.2500 0.0000  plane waves:   25786
 k-point 18 :   0.3333 0.2500 0.0000  plane waves:   25715
 k-point 19 :   0.3333 0.3333 0.0000  plane waves:   25668

 maximum and minimum number of plane-waves per node :      6545     6413

 maximum number of plane-waves:     26005
 maximum index in each direction: 
   IXMAX=    6   IYMAX=    6   IZMAX=  180
   IXMIN=   -6   IYMIN=   -6   IZMIN= -180


 parallel 3D FFT for wavefunctions:
    minimum data exchange during FFTs selected (reduces bandwidth)
 parallel 3D FFT for charge:
    minimum data exchange during FFTs selected (reduces bandwidth)


 total amount of memory used by VASP MPI-rank0    91185. kBytes
=======================================================================

   base      :      30000. kBytes
   nonl-proj :      39616. kBytes
   fftplans  :       6730. kBytes
   grid      :      10591. kBytes
   one-center:        124. kBytes
   wavefun   :       4124. kBytes
 
     INWAV:  cpu time    0.0000: real time    0.0000
 Broyden mixing: mesh for mixing (old mesh)
   NGX = 13   NGY = 13   NGZ =361
  (NGX  = 56   NGY  = 56   NGZ  =***)
  gives a total of  61009 points

 initial charge density was supplied:
 charge density of overlapping atoms calculated
 number of electron     288.0000000 magnetization 
 keeping initial charge density in first step


--------------------------------------------------------------------------------------------------------


 Maximum index for augmentation-charges          652 (set IRDMAX)


--------------------------------------------------------------------------------------------------------


 First call to EWALD:  gamma=   0.136
 Maximum number of real-space cells 8x 8x 1
 Maximum number of reciprocal cells 1x 1x23

    FEWALD:  cpu time    0.0040: real time    0.0040


--------------------------------------- Iteration      1(   1)  ---------------------------------------


    POTLOK:  cpu time    0.1265: real time    0.1846
    SETDIJ:  cpu time    0.0074: real time    0.0077
     EDDAV:  cpu time   43.4815: real time   43.5608
       DOS:  cpu time    0.0036: real time    0.0044
    --------------------------------------------
      LOOP:  cpu time   43.6190: real time   43.7574

 eigenvalue-minimisations  :  9728
 total energy-change (2. order) : 0.1718446E+04  (-0.1004959E+05)
 number of electron     288.0000000 magnetization 
 augmentation part      288.0000000 magnetization 

 Free energy of the ion-electron system (eV)
  ---------------------------------------------------
  alpha Z        PSCENC =       189.86283562
  Ewald energy   TEWEN  =   1157573.46240687
  -Hartree energ DENC   =  -1182979.76967341
  -exchange      EXHF   =         0.00000000
  -V(xc)+E(xc)   XCENC  =        74.54725175
  PAW double counting   =     18959.95221245   -17909.33666203
  entropy T*S    EENTRO =         0.01519735
  eigenvalues    EBANDS =     -1711.88155396
  atomic energy  EATOM  =     27521.59385125
  Solvation  Ediel_sol  =         0.00000000
  ---------------------------------------------------
  free energy    TOTEN  =      1718.44586588 eV

  energy without entropy =     1718.43066853  energy(sigma->0) =     1718.44080010


--------------------------------------------------------------------------------------------------------




--------------------------------------- Iteration      1(   2)  ---------------------------------------


     EDDAV:  cpu time   20.6139: real time   20.6255
       DOS:  cpu time    0.0037: real time    0.0037
    --------------------------------------------
      LOOP:  cpu time   20.6177: real time   20.6292

 eigenvalue-minimisations  : 12544
 total energy-change (2. order) :-0.1715552E+04  (-0.1685354E+04)
 number of electron     288.0000000 magnetization 
 augmentation part      288.0000000 magnetization 

 Free energy of the ion-electron system (eV)
  ---------------------------------------------------
  alpha Z        PSCENC =       189.86283562
  Ewald energy   TEWEN  =   1157573.46240687
  -Hartree energ DENC   =  -1182979.76967341
  -exchange      EXHF   =         0.00000000
  -V(xc)+E(xc)   XCENC  =        74.54725175
  PAW double counting   =     18959.95221245   -17909.33666203
  entropy T*S    EENTRO =         0.03425946
  eigenvalues    EBANDS =     -3427.45302723
  atomic energy  EATOM  =     27521.59385125
  Solvation  Ediel_sol  =         0.00000000
  ---------------------------------------------------
  free energy    TOTEN  =         2.89345472 eV

  energy without entropy =        2.85919526  energy(sigma->0) =        2.88203490


--------------------------------------------------------------------------------------------------------




--------------------------------------- Iteration      1(   3)  ---------------------------------------


     EDDAV:  cpu time   17.7839: real time   17.7954
       DOS:  cpu time    0.0038: real time    0.0038
    --------------------------------------------
      LOOP:  cpu time   17.7876: real time   17.7991

 eigenvalue-minimisations  : 11648
 total energy-change (2. order) :-0.1134384E+03  (-0.1132539E+03)
 number of electron     288.0000000 magnetization 
 augmentation part      288.0000000 magnetization 

 Free energy of the ion-electron system (eV)
  ---------------------------------------------------
  alpha Z        PSCENC =       189.86283562
  Ewald energy   TEWEN  =   1157573.46240687
  -Hartree energ DENC   =  -1182979.76967341
  -exchange      EXHF   =         0.00000000
  -V(xc)+E(xc)   XCENC  =        74.54725175
  PAW double counting   =     18959.95221245   -17909.33666203
  entropy T*S    EENTRO =         0.03077145
  eigenvalues    EBANDS =     -3540.88792052
  atomic energy  EATOM  =     27521.59385125
  Solvation  Ediel_sol  =         0.00000000
  ---------------------------------------------------
  free energy    TOTEN  =      -110.54492657 eV

  energy without entropy =     -110.57569802  energy(sigma->0) =     -110.55518372


--------------------------------------------------------------------------------------------------------




--------------------------------------- Iteration      1(   4)  ---------------------------------------


     EDDAV:  cpu time   32.1932: real time   32.2078
       DOS:  cpu time    0.0024: real time    0.0024
    --------------------------------------------
      LOOP:  cpu time   32.1956: real time   32.2102

 eigenvalue-minimisations  : 16896
 total energy-change (2. order) :-0.3611152E+01  (-0.3610969E+01)
 number of electron     288.0000000 magnetization 
 augmentation part      288.0000000 magnetization 

 Free energy of the ion-electron system (eV)
  ---------------------------------------------------
  alpha Z        PSCENC =       189.86283562
  Ewald energy   TEWEN  =   1157573.46240687
  -Hartree energ DENC   =  -1182979.76967341
  -exchange      EXHF   =         0.00000000
  -V(xc)+E(xc)   XCENC  =        74.54725175
  PAW double counting   =     18959.95221245   -17909.33666203
  entropy T*S    EENTRO =         0.03225660
  eigenvalues    EBANDS =     -3544.50055764
  atomic energy  EATOM  =     27521.59385125
  Solvation  Ediel_sol  =         0.00000000
  ---------------------------------------------------
  free energy    TOTEN  =      -114.15607854 eV

  energy without entropy =     -114.18833514  energy(sigma->0) =     -114.16683074


--------------------------------------------------------------------------------------------------------




--------------------------------------- Iteration      1(   5)  ---------------------------------------


     EDDAV:  cpu time   22.2033: real time   22.2156
       DOS:  cpu time    0.0039: real time    0.0039
    CHARGE:  cpu time    0.2314: real time    0.2338
    MIXING:  cpu time    0.0137: real time    0.0140
    --------------------------------------------
      LOOP:  cpu time   22.4522: real time   22.4673

 eigenvalue-minimisations  : 13568
 total energy-change (2. order) :-0.3600875E-01  (-0.3600855E-01)
 number of electron     288.0000160 magnetization 
 augmentation part       48.3299423 magnetization 

 Broyden mixing:
  rms(total) = 0.67801E+00    rms(broyden)= 0.67774E+00
  rms(prec ) = 0.68146E+00
  weight for this iteration     100.00

 Free energy of the ion-electron system (eV)
  ---------------------------------------------------
  alpha Z        PSCENC =       189.86283562
  Ewald energy   TEWEN  =   1157573.46240687
  -Hartree energ DENC   =  -1182979.76967341
  -exchange      EXHF   =         0.00000000
  -V(xc)+E(xc)   XCENC  =        74.54725175
  PAW double counting   =     18959.95221245   -17909.33666203
  entropy T*S    EENTRO =         0.03225829
  eigenvalues    EBANDS =     -3544.53656807
  atomic energy  EATOM  =     27521.59385125
  Solvation  Ediel_sol  =         0.00000000
  ---------------------------------------------------
  free energy    TOTEN  =      -114.19208729 eV

  energy without entropy =     -114.22434558  energy(sigma->0) =     -114.20284005


--------------------------------------------------------------------------------------------------------




--------------------------------------- Iteration      1(   6)  ---------------------------------------


    POTLOK:  cpu time    0.0951: real time    0.1011
    SETDIJ:  cpu time    0.0032: real time    0.0032
    EDDIAG:  cpu time    2.6151: real time    2.6175
  RMM-DIIS:  cpu time    2.3080: real time    2.3105
    ORTHCH:  cpu time    0.3580: real time    0.3584
       DOS:  cpu time    0.0016: real time    0.0016
    CHARGE:  cpu time    0.2285: real time    0.2286
    MIXING:  cpu time    0.0027: real time    0.0033
    --------------------------------------------
      LOOP:  cpu time    5.6121: real time    5.6241

 eigenvalue-minimisations  :  9850
 total energy-change (2. order) : 0.1917920E+01  (-0.3385153E+00)
 number of electron     288.0000159 magnetization 
 augmentation part       48.6425999 magnetization 

 Broyden mixing:
  rms(total) = 0.29290E+00    rms(broyden)= 0.29288E+00
  rms(prec ) = 0.29382E+00
  weight for this iteration     100.00

 eigenvalues of (default mixing * dielectric matrix)
  average eigenvalue GAMMA=   1.3290
  1.3290

 Free energy of the ion-electron system (eV)
  ---------------------------------------------------
  alpha Z        PSCENC =       189.86283562
  Ewald energy   TEWEN  =   1157573.46240687
  -Hartree energ DENC   =  -1182878.17602395
  -exchange      EXHF   =         0.00000000
  -V(xc)+E(xc)   XCENC  =        74.87352773
  PAW double counting   =     18888.84616708   -17822.86459745
  entropy T*S    EENTRO =         0.03924682
  eigenvalues    EBANDS =     -3659.91158149
  atomic energy  EATOM  =     27521.59385125
  Solvation  Ediel_sol  =         0.00000000
  ---------------------------------------------------
  free energy    TOTEN  =      -112.27416752 eV

  energy without entropy =     -112.31341434  energy(sigma->0) =     -112.28724979


--------------------------------------------------------------------------------------------------------




--------------------------------------- Iteration      1(   7)  ---------------------------------------


    POTLOK:  cpu time    0.0907: real time    0.0968
    SETDIJ:  cpu time    0.0032: real time    0.0032
    EDDIAG:  cpu time    2.6419: real time    2.6427
  RMM-DIIS:  cpu time    2.8271: real time    2.8865
    ORTHCH:  cpu time    0.3635: real time    0.3639
       DOS:  cpu time    0.0014: real time    0.0014
    CHARGE:  cpu time    0.2313: real time    0.2313
    MIXING:  cpu time    0.0019: real time    0.0019
    --------------------------------------------
      LOOP:  cpu time    6.1610: real time    6.2277

 eigenvalue-minimisations  : 10512
 total energy-change (2. order) : 0.9302257E-01  (-0.3053695E-01)
 number of electron     288.0000159 magnetization 
 augmentation part       48.6534417 magnetization 

 Broyden mixing:
  rms(total) = 0.14640E+00    rms(broyden)= 0.14640E+00
  rms(prec ) = 0.14752E+00
  weight for this iteration     100.00

 eigenvalues of (default mixing * dielectric matrix)
  average eigenvalue GAMMA=   1.5027
  0.9974  2.0081

 Free energy of the ion-electron system (eV)
  ---------------------------------------------------
  alpha Z        PSCENC =       189.86283562
  Ewald energy   TEWEN  =   1157573.46240687
  -Hartree energ DENC   =  -1182936.16841260
  -exchange      EXHF   =         0.00000000
  -V(xc)+E(xc)   XCENC  =        75.48477424
  PAW double counting   =     18957.54143980   -17889.96668226
  entropy T*S    EENTRO =         0.02688034
  eigenvalues    EBANDS =     -3604.01823822
  atomic energy  EATOM  =     27521.59385125
  Solvation  Ediel_sol  =         0.00000000
  ---------------------------------------------------
  free energy    TOTEN  =      -112.18114495 eV

  energy without entropy =     -112.20802529  energy(sigma->0) =     -112.19010507


--------------------------------------------------------------------------------------------------------




--------------------------------------- Iteration      1(   8)  ---------------------------------------


    POTLOK:  cpu time    0.0894: real time    0.0958
    SETDIJ:  cpu time    0.0031: real time    0.0031
    EDDIAG:  cpu time    2.6539: real time    2.6547
  RMM-DIIS:  cpu time    2.5201: real time    2.5215
    ORTHCH:  cpu time    0.3556: real time    0.3559
       DOS:  cpu time    0.0015: real time    0.0014
    CHARGE:  cpu time    0.2576: real time    0.2577
    MIXING:  cpu time    0.0020: real time    0.0020
    --------------------------------------------
      LOOP:  cpu time    5.8833: real time    5.8923

 eigenvalue-minimisations  : 10194
 total energy-change (2. order) :-0.1699538E+00  (-0.8513135E-02)
 number of electron     288.0000159 magnetization 
 augmentation part       48.6186535 magnetization 

 Broyden mixing:
  rms(total) = 0.10935E+00    rms(broyden)= 0.10934E+00
  rms(prec ) = 0.12166E+00
  weight for this iteration     100.00

 eigenvalues of (default mixing * dielectric matrix)
  average eigenvalue GAMMA=   1.2767
  2.2550  1.0938  0.4814

 Free energy of the ion-electron system (eV)
  ---------------------------------------------------
  alpha Z        PSCENC =       189.86283562
  Ewald energy   TEWEN  =   1157573.46240687
  -Hartree energ DENC   =  -1182812.73533066
  -exchange      EXHF   =         0.00000000
  -V(xc)+E(xc)   XCENC  =        75.98138951
  PAW double counting   =     19013.06748974   -17945.56199309
  entropy T*S    EENTRO =         0.02966800
  eigenvalues    EBANDS =     -3728.05141599
  atomic energy  EATOM  =     27521.59385125
  Solvation  Ediel_sol  =         0.00000000
  ---------------------------------------------------
  free energy    TOTEN  =      -112.35109875 eV

  energy without entropy =     -112.38076675  energy(sigma->0) =     -112.36098808


--------------------------------------------------------------------------------------------------------




--------------------------------------- Iteration      1(   9)  ---------------------------------------


    POTLOK:  cpu time    0.0883: real time    0.0943
    SETDIJ:  cpu time    0.0034: real time    0.0034
    EDDIAG:  cpu time    2.5604: real time    2.5612
  RMM-DIIS:  cpu time    2.6702: real time    2.6716
    ORTHCH:  cpu time    0.3657: real time    0.3660
       DOS:  cpu time    0.0016: real time    0.0016
    CHARGE:  cpu time    0.2356: real time    0.2357
    MIXING:  cpu time    0.0020: real time    0.0020
    --------------------------------------------
      LOOP:  cpu time    5.9271: real time    5.9358

 eigenvalue-minimisations  : 10371
 total energy-change (2. order) : 0.1122048E+00  (-0.4813454E-02)
 number of electron     288.0000159 magnetization 
 augmentation part       48.6072034 magnetization 

 Broyden mixing:
  rms(total) = 0.61521E-01    rms(broyden)= 0.61511E-01
  rms(prec ) = 0.67835E-01
  weight for this iteration     100.00

 eigenvalues of (default mixing * dielectric matrix)
  average eigenvalue GAMMA=   1.2482
  2.5426  1.2798  0.8500  0.3206

 Free energy of the ion-electron system (eV)
  ---------------------------------------------------
  alpha Z        PSCENC =       189.86283562
  Ewald energy   TEWEN  =   1157573.46240687
  -Hartree energ DENC   =  -1182965.25597793
  -exchange      EXHF   =         0.00000000
  -V(xc)+E(xc)   XCENC  =        76.09497316
  PAW double counting   =     19030.67171401   -17963.66121585
  entropy T*S    EENTRO =         0.01753198
  eigenvalues    EBANDS =     -3575.02501309
  atomic energy  EATOM  =     27521.59385125
  Solvation  Ediel_sol  =         0.00000000
  ---------------------------------------------------
  free energy    TOTEN  =      -112.23889398 eV

  energy without entropy =     -112.25642596  energy(sigma->0) =     -112.24473797


--------------------------------------------------------------------------------------------------------




--------------------------------------- Iteration      1(  10)  ---------------------------------------


    POTLOK:  cpu time    0.0902: real time    0.0969
    SETDIJ:  cpu time    0.0031: real time    0.0031
    EDDIAG:  cpu time    2.5540: real time    2.5548
  RMM-DIIS:  cpu time    2.7015: real time    2.7030
    ORTHCH:  cpu time    0.3584: real time    0.3587
       DOS:  cpu time    0.0016: real time    0.0016
    CHARGE:  cpu time    0.2329: real time    0.2329
    MIXING:  cpu time    0.0021: real time    0.0021
    --------------------------------------------
      LOOP:  cpu time    5.9439: real time    5.9531

 eigenvalue-minimisations  : 10637
 total energy-change (2. order) : 0.5624436E-01  (-0.8586899E-03)
 number of electron     288.0000159 magnetization 
 augmentation part       48.5951966 magnetization 

 Broyden mixing:
  rms(total) = 0.14983E-01    rms(broyden)= 0.14981E-01
  rms(prec ) = 0.15878E-01
  weight for this iteration     100.00

 eigenvalues of (default mixing * dielectric matrix)
  average eigenvalue GAMMA=   1.1852
  2.6341  1.2116  0.9641  0.7911  0.3251

 Free energy of the ion-electron system (eV)
  ---------------------------------------------------
  alpha Z        PSCENC =       189.86283562
  Ewald energy   TEWEN  =   1157573.46240687
  -Hartree energ DENC   =  -1182924.86338898
  -exchange      EXHF   =         0.00000000
  -V(xc)+E(xc)   XCENC  =        76.17618311
  PAW double counting   =     19045.54287823   -17979.13665365
  entropy T*S    EENTRO =         0.03637021
  eigenvalues    EBANDS =     -3614.85713228
  atomic energy  EATOM  =     27521.59385125
  Solvation  Ediel_sol  =         0.00000000
  ---------------------------------------------------
  free energy    TOTEN  =      -112.18264962 eV

  energy without entropy =     -112.21901983  energy(sigma->0) =     -112.19477302


--------------------------------------------------------------------------------------------------------




--------------------------------------- Iteration      1(  11)  ---------------------------------------


    POTLOK:  cpu time    0.0928: real time    0.0985
    SETDIJ:  cpu time    0.0031: real time    0.0031
    EDDIAG:  cpu time    2.6188: real time    2.6194
  RMM-DIIS:  cpu time    2.6668: real time    2.6686
    ORTHCH:  cpu time    0.3542: real time    0.3545
       DOS:  cpu time    0.0016: real time    0.0016
    CHARGE:  cpu time    0.2301: real time    0.2302
    MIXING:  cpu time    0.0022: real time    0.0022
    --------------------------------------------
      LOOP:  cpu time    5.9696: real time    5.9782

 eigenvalue-minimisations  : 10259
 total energy-change (2. order) : 0.1886651E-02  (-0.1439465E-03)
 number of electron     288.0000159 magnetization 
 augmentation part       48.5968086 magnetization 

 Broyden mixing:
  rms(total) = 0.11106E-01    rms(broyden)= 0.11105E-01
  rms(prec ) = 0.11492E-01
  weight for this iteration     100.00

 eigenvalues of (default mixing * dielectric matrix)
  average eigenvalue GAMMA=   1.1885
  2.7314  1.3824  1.3824  0.8670  0.3349  0.4332

 Free energy of the ion-electron system (eV)
  ---------------------------------------------------
  alpha Z        PSCENC =       189.86283562
  Ewald energy   TEWEN  =   1157573.46240687
  -Hartree energ DENC   =  -1182907.86818888
  -exchange      EXHF   =         0.00000000
  -V(xc)+E(xc)   XCENC  =        76.18137311
  PAW double counting   =     19045.77171474   -17979.35542742
  entropy T*S    EENTRO =         0.04233955
  eigenvalues    EBANDS =     -3631.87166780
  atomic energy  EATOM  =     27521.59385125
  Solvation  Ediel_sol  =         0.00000000
  ---------------------------------------------------
  free energy    TOTEN  =      -112.18076297 eV

  energy without entropy =     -112.22310252  energy(sigma->0) =     -112.19487615


--------------------------------------------------------------------------------------------------------




--------------------------------------- Iteration      1(  12)  ---------------------------------------


    POTLOK:  cpu time    0.0902: real time    0.0968
    SETDIJ:  cpu time    0.0033: real time    0.0033
    EDDIAG:  cpu time    2.6516: real time    2.6522
  RMM-DIIS:  cpu time    2.5961: real time    2.5981
    ORTHCH:  cpu time    0.3650: real time    0.3654
       DOS:  cpu time    0.0015: real time    0.0015
    CHARGE:  cpu time    0.2283: real time    0.2284
    MIXING:  cpu time    0.0020: real time    0.0020
    --------------------------------------------
      LOOP:  cpu time    5.9381: real time    5.9477

 eigenvalue-minimisations  : 10063
 total energy-change (2. order) :-0.1700772E-02  (-0.9381579E-04)
 number of electron     288.0000159 magnetization 
 augmentation part       48.6000928 magnetization 

 Broyden mixing:
  rms(total) = 0.11683E-01    rms(broyden)= 0.11683E-01
  rms(prec ) = 0.13493E-01
  weight for this iteration     100.00

 eigenvalues of (default mixing * dielectric matrix)
  average eigenvalue GAMMA=   1.1810
  2.7976  1.9383  1.2131  0.8839  0.6957  0.3212  0.4171

 Free energy of the ion-electron system (eV)
  ---------------------------------------------------
  alpha Z        PSCENC =       189.86283562
  Ewald energy   TEWEN  =   1157573.46240687
  -Hartree energ DENC   =  -1182901.83626752
  -exchange      EXHF   =         0.00000000
  -V(xc)+E(xc)   XCENC  =        76.18104532
  PAW double counting   =     19045.50188560   -17979.10459996
  entropy T*S    EENTRO =         0.04119496
  eigenvalues    EBANDS =     -3637.88481587
  atomic energy  EATOM  =     27521.59385125
  Solvation  Ediel_sol  =         0.00000000
  ---------------------------------------------------
  free energy    TOTEN  =      -112.18246374 eV

  energy without entropy =     -112.22365870  energy(sigma->0) =     -112.19619539


--------------------------------------------------------------------------------------------------------




--------------------------------------- Iteration      1(  13)  ---------------------------------------


    POTLOK:  cpu time    0.0903: real time    0.0965
    SETDIJ:  cpu time    0.0032: real time    0.0032
    EDDIAG:  cpu time    2.6223: real time    2.6229
  RMM-DIIS:  cpu time    2.7259: real time    2.7275
    ORTHCH:  cpu time    0.3703: real time    0.3707
       DOS:  cpu time    0.0015: real time    0.0015
    CHARGE:  cpu time    0.2284: real time    0.2284
    MIXING:  cpu time    0.0021: real time    0.0021
    --------------------------------------------
      LOOP:  cpu time    6.0440: real time    6.0528

 eigenvalue-minimisations  : 10386
 total energy-change (2. order) : 0.2484403E-03  (-0.4132966E-04)
 number of electron     288.0000159 magnetization 
 augmentation part       48.6006218 magnetization 

 Broyden mixing:
  rms(total) = 0.79849E-02    rms(broyden)= 0.79844E-02
  rms(prec ) = 0.10784E-01
  weight for this iteration     100.00

 eigenvalues of (default mixing * dielectric matrix)
  average eigenvalue GAMMA=   1.0822
  2.8073  2.0253  1.1733  0.8820  0.6986  0.4940  0.3259  0.2512

 Free energy of the ion-electron system (eV)
  ---------------------------------------------------
  alpha Z        PSCENC =       189.86283562
  Ewald energy   TEWEN  =   1157573.46240687
  -Hartree energ DENC   =  -1182908.97096363
  -exchange      EXHF   =         0.00000000
  -V(xc)+E(xc)   XCENC  =        76.18171419
  PAW double counting   =     19045.63209515   -17979.31625528
  entropy T*S    EENTRO =         0.03846739
  eigenvalues    EBANDS =     -3630.66636685
  atomic energy  EATOM  =     27521.59385125
  Solvation  Ediel_sol  =         0.00000000
  ---------------------------------------------------
  free energy    TOTEN  =      -112.18221530 eV

  energy without entropy =     -112.22068269  energy(sigma->0) =     -112.19503776


--------------------------------------------------------------------------------------------------------




--------------------------------------- Iteration      1(  14)  ---------------------------------------


    POTLOK:  cpu time    0.0950: real time    0.1003
    SETDIJ:  cpu time    0.0031: real time    0.0031
    EDDIAG:  cpu time    2.5608: real time    2.5669
  RMM-DIIS:  cpu time    2.7143: real time    2.7207
    ORTHCH:  cpu time    0.3652: real time    0.3657
       DOS:  cpu time    0.0015: real time    0.0015
    CHARGE:  cpu time    0.2295: real time    0.2298
    MIXING:  cpu time    0.0022: real time    0.0022
    --------------------------------------------
      LOOP:  cpu time    5.9716: real time    5.9902

 eigenvalue-minimisations  : 10566
 total energy-change (2. order) : 0.1709547E-02  (-0.1307652E-04)
 number of electron     288.0000159 magnetization 
 augmentation part       48.6006059 magnetization 

 Broyden mixing:
  rms(total) = 0.44523E-02    rms(broyden)= 0.44518E-02
  rms(prec ) = 0.53868E-02
  weight for this iteration     100.00

 eigenvalues of (default mixing * dielectric matrix)
  average eigenvalue GAMMA=   1.0677
  2.8011  2.2119  1.0811  1.0811  0.8780  0.7051  0.3152  0.3684  0.1673

 Free energy of the ion-electron system (eV)
  ---------------------------------------------------
  alpha Z        PSCENC =       189.86283562
  Ewald energy   TEWEN  =   1157573.46240687
  -Hartree energ DENC   =  -1182910.90909970
  -exchange      EXHF   =         0.00000000
  -V(xc)+E(xc)   XCENC  =        76.18254835
  PAW double counting   =     19045.70729493   -17979.41269037
  entropy T*S    EENTRO =         0.04196330
  eigenvalues    EBANDS =     -3628.70961599
  atomic energy  EATOM  =     27521.59385125
  Solvation  Ediel_sol  =         0.00000000
  ---------------------------------------------------
  free energy    TOTEN  =      -112.18050575 eV

  energy without entropy =     -112.22246905  energy(sigma->0) =     -112.19449352


--------------------------------------------------------------------------------------------------------




--------------------------------------- Iteration      1(  15)  ---------------------------------------


    POTLOK:  cpu time    0.0897: real time    0.0963
    SETDIJ:  cpu time    0.0031: real time    0.0031
    EDDIAG:  cpu time    2.5685: real time    2.5706
  RMM-DIIS:  cpu time    2.6002: real time    2.6066
    ORTHCH:  cpu time    0.3568: real time    0.3572
       DOS:  cpu time    0.0015: real time    0.0015
    CHARGE:  cpu time    0.2526: real time    0.2533
    MIXING:  cpu time    0.0034: real time    0.0034
    --------------------------------------------
      LOOP:  cpu time    5.8758: real time    5.8921

 eigenvalue-minimisations  : 10219
 total energy-change (2. order) : 0.3530163E-03  (-0.5917264E-05)
 number of electron     288.0000159 magnetization 
 augmentation part       48.6000027 magnetization 

 Broyden mixing:
  rms(total) = 0.15593E-02    rms(broyden)= 0.15591E-02
  rms(prec ) = 0.17243E-02
  weight for this iteration     100.00

 eigenvalues of (default mixing * dielectric matrix)
  average eigenvalue GAMMA=   1.0357
  2.7998  2.2897  1.1619  1.1619  0.8715  0.6126  0.6126  0.3644  0.3160  0.1666

 Free energy of the ion-electron system (eV)
  ---------------------------------------------------
  alpha Z        PSCENC =       189.86283562
  Ewald energy   TEWEN  =   1157573.46240687
  -Hartree energ DENC   =  -1182912.10556921
  -exchange      EXHF   =         0.00000000
  -V(xc)+E(xc)   XCENC  =        76.18533259
  PAW double counting   =     19045.88074833   -17979.63014430
  entropy T*S    EENTRO =         0.04183023
  eigenvalues    EBANDS =     -3627.47144411
  atomic energy  EATOM  =     27521.59385125
  Solvation  Ediel_sol  =         0.00000000
  ---------------------------------------------------
  free energy    TOTEN  =      -112.18015273 eV

  energy without entropy =     -112.22198297  energy(sigma->0) =     -112.19409615


--------------------------------------------------------------------------------------------------------




--------------------------------------- Iteration      1(  16)  ---------------------------------------


    POTLOK:  cpu time    0.0899: real time    0.0966
    SETDIJ:  cpu time    0.0035: real time    0.0035
    EDDIAG:  cpu time    2.6308: real time    2.6332
  RMM-DIIS:  cpu time    2.5983: real time    2.6016
    ORTHCH:  cpu time    0.3614: real time    0.3615
       DOS:  cpu time    0.0015: real time    0.0015
    CHARGE:  cpu time    0.2333: real time    0.2337
    MIXING:  cpu time    0.0023: real time    0.0023
    --------------------------------------------
      LOOP:  cpu time    5.9209: real time    5.9338

 eigenvalue-minimisations  :  9598
 total energy-change (2. order) : 0.1649007E-04  (-0.1059444E-05)
 number of electron     288.0000159 magnetization 
 augmentation part       48.5998225 magnetization 

 Broyden mixing:
  rms(total) = 0.98636E-03    rms(broyden)= 0.98630E-03
  rms(prec ) = 0.10793E-02
  weight for this iteration     100.00

 eigenvalues of (default mixing * dielectric matrix)
  average eigenvalue GAMMA=   1.0618
  2.8369  2.4228  1.4706  1.0270  1.0270  0.8166  0.8166  0.4074  0.3730  0.3171
  0.1650

 Free energy of the ion-electron system (eV)
  ---------------------------------------------------
  alpha Z        PSCENC =       189.86283562
  Ewald energy   TEWEN  =   1157573.46240687
  -Hartree energ DENC   =  -1182912.07952655
  -exchange      EXHF   =         0.00000000
  -V(xc)+E(xc)   XCENC  =        76.18692947
  PAW double counting   =     19045.83975262   -17979.59519844
  entropy T*S    EENTRO =         0.04191213
  eigenvalues    EBANDS =     -3627.49309922
  atomic energy  EATOM  =     27521.59385125
  Solvation  Ediel_sol  =         0.00000000
  ---------------------------------------------------
  free energy    TOTEN  =      -112.18013624 eV

  energy without entropy =     -112.22204838  energy(sigma->0) =     -112.19410696


--------------------------------------------------------------------------------------------------------




--------------------------------------- Iteration      1(  17)  ---------------------------------------


    POTLOK:  cpu time    0.0880: real time    0.0940
    SETDIJ:  cpu time    0.0031: real time    0.0032
    EDDIAG:  cpu time    2.6983: real time    2.6996
  RMM-DIIS:  cpu time    2.3533: real time    2.3562
    ORTHCH:  cpu time    0.3578: real time    0.3582
       DOS:  cpu time    0.0014: real time    0.0014
    CHARGE:  cpu time    0.2284: real time    0.2287
    MIXING:  cpu time    0.0022: real time    0.0022
    --------------------------------------------
      LOOP:  cpu time    5.7325: real time    5.7435

 eigenvalue-minimisations  :  8803
 total energy-change (2. order) :-0.6742619E-05  (-0.7348372E-06)
 number of electron     288.0000159 magnetization 
 augmentation part       48.5999100 magnetization 

 Broyden mixing:
  rms(total) = 0.68115E-03    rms(broyden)= 0.68111E-03
  rms(prec ) = 0.78730E-03
  weight for this iteration     100.00

 eigenvalues of (default mixing * dielectric matrix)
  average eigenvalue GAMMA=   1.0729
  2.9104  2.5513  1.8835  1.0562  1.0562  0.7957  0.7044  0.7044  0.3169  0.3650
  0.3650  0.1652

 Free energy of the ion-electron system (eV)
  ---------------------------------------------------
  alpha Z        PSCENC =       189.86283562
  Ewald energy   TEWEN  =   1157573.46240687
  -Hartree energ DENC   =  -1182911.86078667
  -exchange      EXHF   =         0.00000000
  -V(xc)+E(xc)   XCENC  =        76.18946418
  PAW double counting   =     19045.68212463   -17979.43315678
  entropy T*S    EENTRO =         0.04210703
  eigenvalues    EBANDS =     -3627.71898911
  atomic energy  EATOM  =     27521.59385125
  Solvation  Ediel_sol  =         0.00000000
  ---------------------------------------------------
  free energy    TOTEN  =      -112.18014299 eV

  energy without entropy =     -112.22225002  energy(sigma->0) =     -112.19417866


--------------------------------------------------------------------------------------------------------




--------------------------------------- Iteration      1(  18)  ---------------------------------------


    POTLOK:  cpu time    0.0883: real time    0.0942
    SETDIJ:  cpu time    0.0031: real time    0.0031
    EDDIAG:  cpu time    2.6420: real time    2.6455
  RMM-DIIS:  cpu time    2.4399: real time    2.4457
    ORTHCH:  cpu time    0.3587: real time    0.3590
       DOS:  cpu time    0.0015: real time    0.0015
    CHARGE:  cpu time    0.2312: real time    0.2315
    MIXING:  cpu time    0.0023: real time    0.0023
    --------------------------------------------
      LOOP:  cpu time    5.7670: real time    5.7829

 eigenvalue-minimisations  :  8491
 total energy-change (2. order) :-0.4992497E-05  (-0.2912877E-06)
 number of electron     288.0000159 magnetization 
 augmentation part       48.6000150 magnetization 

 Broyden mixing:
  rms(total) = 0.29580E-03    rms(broyden)= 0.29578E-03
  rms(prec ) = 0.31662E-03
  weight for this iteration     100.00

 eigenvalues of (default mixing * dielectric matrix)
  average eigenvalue GAMMA=   1.0740
  2.9409  2.5996  1.9997  1.1056  0.9734  0.9734  0.9177  0.6856  0.5558  0.3164
  0.3651  0.3632  0.1652

 Free energy of the ion-electron system (eV)
  ---------------------------------------------------
  alpha Z        PSCENC =       189.86283562
  Ewald energy   TEWEN  =   1157573.46240687
  -Hartree energ DENC   =  -1182912.36506444
  -exchange      EXHF   =         0.00000000
  -V(xc)+E(xc)   XCENC  =        76.19108581
  PAW double counting   =     19045.56939371   -17979.31480313
  entropy T*S    EENTRO =         0.04209899
  eigenvalues    EBANDS =     -3627.22195266
  atomic energy  EATOM  =     27521.59385125
  Solvation  Ediel_sol  =         0.00000000
  ---------------------------------------------------
  free energy    TOTEN  =      -112.18014798 eV

  energy without entropy =     -112.22224697  energy(sigma->0) =     -112.19418098


--------------------------------------------------------------------------------------------------------




--------------------------------------- Iteration      1(  19)  ---------------------------------------


    POTLOK:  cpu time    0.0908: real time    0.0967
    SETDIJ:  cpu time    0.0031: real time    0.0031
    EDDIAG:  cpu time    2.6046: real time    2.6083
  RMM-DIIS:  cpu time    2.2349: real time    2.2386
    ORTHCH:  cpu time    0.3596: real time    0.3597
       DOS:  cpu time    0.0020: real time    0.0020
    CHARGE:  cpu time    0.2291: real time    0.2297
    MIXING:  cpu time    0.0024: real time    0.0023
    --------------------------------------------
      LOOP:  cpu time    5.5263: real time    5.5404

 eigenvalue-minimisations  :  7714
 total energy-change (2. order) :-0.8422558E-05  (-0.8652056E-07)
 number of electron     288.0000159 magnetization 
 augmentation part       48.6000808 magnetization 

 Broyden mixing:
  rms(total) = 0.27910E-03    rms(broyden)= 0.27909E-03
  rms(prec ) = 0.32383E-03
  weight for this iteration     100.00

 eigenvalues of (default mixing * dielectric matrix)
  average eigenvalue GAMMA=   1.1060
  3.1275  2.6012  2.3577  1.4348  1.0565  1.0565  0.7857  0.7260  0.7260  0.3166
  0.3953  0.3790  0.3561  0.1652

 Free energy of the ion-electron system (eV)
  ---------------------------------------------------
  alpha Z        PSCENC =       189.86283562
  Ewald energy   TEWEN  =   1157573.46240687
  -Hartree energ DENC   =  -1182912.79184356
  -exchange      EXHF   =         0.00000000
  -V(xc)+E(xc)   XCENC  =        76.19161602
  PAW double counting   =     19045.52333739   -17979.26598920
  entropy T*S    EENTRO =         0.04204848
  eigenvalues    EBANDS =     -3626.79841928
  atomic energy  EATOM  =     27521.59385125
  Solvation  Ediel_sol  =         0.00000000
  ---------------------------------------------------
  free energy    TOTEN  =      -112.18015640 eV

  energy without entropy =     -112.22220488  energy(sigma->0) =     -112.19417256


--------------------------------------------------------------------------------------------------------




--------------------------------------- Iteration      1(  20)  ---------------------------------------


    POTLOK:  cpu time    0.0882: real time    0.0950
    SETDIJ:  cpu time    0.0032: real time    0.0032
    EDDIAG:  cpu time    2.6050: real time    2.6063
  RMM-DIIS:  cpu time    2.0261: real time    2.0284
    ORTHCH:  cpu time    0.3588: real time    0.3596
       DOS:  cpu time    0.0015: real time    0.0015
    CHARGE:  cpu time    0.2324: real time    0.2328
    MIXING:  cpu time    0.0023: real time    0.0023
    --------------------------------------------
      LOOP:  cpu time    5.3175: real time    5.3291

 eigenvalue-minimisations  :  7264
 total energy-change (2. order) :-0.1102511E-04  (-0.7955250E-07)
 number of electron     288.0000159 magnetization 
 augmentation part       48.6001354 magnetization 

 Broyden mixing:
  rms(total) = 0.14327E-03    rms(broyden)= 0.14326E-03
  rms(prec ) = 0.15981E-03
  weight for this iteration     100.00

 eigenvalues of (default mixing * dielectric matrix)
  average eigenvalue GAMMA=   1.1313
  3.2600  2.7592  2.3433  1.7013  1.0709  1.0709  0.8902  0.8902  0.6877  0.6877
  0.3168  0.4027  0.3615  0.3615  0.1652

 Free energy of the ion-electron system (eV)
  ---------------------------------------------------
  alpha Z        PSCENC =       189.86283562
  Ewald energy   TEWEN  =   1157573.46240687
  -Hartree energ DENC   =  -1182912.94156318
  -exchange      EXHF   =         0.00000000
  -V(xc)+E(xc)   XCENC  =        76.19226737
  PAW double counting   =     19045.45999616   -17979.19830564
  entropy T*S    EENTRO =         0.04208600
  eigenvalues    EBANDS =     -3626.65374189
  atomic energy  EATOM  =     27521.59385125
  Solvation  Ediel_sol  =         0.00000000
  ---------------------------------------------------
  free energy    TOTEN  =      -112.18016743 eV

  energy without entropy =     -112.22225342  energy(sigma->0) =     -112.19419609


--------------------------------------------------------------------------------------------------------




--------------------------------------- Iteration      1(  21)  ---------------------------------------


    POTLOK:  cpu time    0.0952: real time    0.1016
    SETDIJ:  cpu time    0.0032: real time    0.0032
    EDDIAG:  cpu time    2.6074: real time    2.6088
  RMM-DIIS:  cpu time    1.7534: real time    1.7559
    ORTHCH:  cpu time    0.3594: real time    0.3598
       DOS:  cpu time    0.0016: real time    0.0016
    CHARGE:  cpu time    0.2337: real time    0.2339
    MIXING:  cpu time    0.0024: real time    0.0024
    --------------------------------------------
      LOOP:  cpu time    5.0562: real time    5.0672

 eigenvalue-minimisations  :  6367
 total energy-change (2. order) :-0.9210187E-05  (-0.3373181E-07)
 number of electron     288.0000159 magnetization 
 augmentation part       48.6001376 magnetization 

 Broyden mixing:
  rms(total) = 0.11492E-03    rms(broyden)= 0.11491E-03
  rms(prec ) = 0.15537E-03
  weight for this iteration     100.00

 eigenvalues of (default mixing * dielectric matrix)
  average eigenvalue GAMMA=   1.1465
  3.4021  2.8684  2.4371  1.9200  1.1189  1.1189  1.0278  0.8146  0.7329  0.7329
  0.5556  0.3168  0.4095  0.3613  0.3613  0.1652

 Free energy of the ion-electron system (eV)
  ---------------------------------------------------
  alpha Z        PSCENC =       189.86283562
  Ewald energy   TEWEN  =   1157573.46240687
  -Hartree energ DENC   =  -1182913.15962042
  -exchange      EXHF   =         0.00000000
  -V(xc)+E(xc)   XCENC  =        76.19251402
  PAW double counting   =     19045.45165116   -17979.19013381
  entropy T*S    EENTRO =         0.04210256
  eigenvalues    EBANDS =     -3626.43578388
  atomic energy  EATOM  =     27521.59385125
  Solvation  Ediel_sol  =         0.00000000
  ---------------------------------------------------
  free energy    TOTEN  =      -112.18017664 eV

  energy without entropy =     -112.22227919  energy(sigma->0) =     -112.19421082


--------------------------------------------------------------------------------------------------------




--------------------------------------- Iteration      1(  22)  ---------------------------------------


    POTLOK:  cpu time    0.0883: real time    0.0953
    SETDIJ:  cpu time    0.0031: real time    0.0031
    EDDIAG:  cpu time    2.5601: real time    2.5663
  RMM-DIIS:  cpu time    1.7075: real time    1.7104
    ORTHCH:  cpu time    0.4109: real time    0.4111
       DOS:  cpu time    0.0018: real time    0.0018
    CHARGE:  cpu time    0.2400: real time    0.2400
    MIXING:  cpu time    0.0025: real time    0.0025
    --------------------------------------------
      LOOP:  cpu time    5.0142: real time    5.0306

 eigenvalue-minimisations  :  5774
 total energy-change (2. order) : 0.3678152E-04  ( 0.3389565E-05)
 number of electron     288.0000159 magnetization 
 augmentation part       48.6000809 magnetization 

 Broyden mixing:
  rms(total) = 0.10554E-03    rms(broyden)= 0.10553E-03
  rms(prec ) = 0.12172E-03
  weight for this iteration     100.00

 eigenvalues of (default mixing * dielectric matrix)
  average eigenvalue GAMMA=   1.1181
  3.4460  2.7156  2.7156  1.9061  1.3054  1.0743  1.0743  0.8121  0.6914  0.6914
  0.5328  0.1652  0.4574  0.3167  0.3751  0.3751  0.3525

 Free energy of the ion-electron system (eV)
  ---------------------------------------------------
  alpha Z        PSCENC =       189.86283562
  Ewald energy   TEWEN  =   1157573.46240687
  -Hartree energ DENC   =  -1182913.44260741
  -exchange      EXHF   =         0.00000000
  -V(xc)+E(xc)   XCENC  =        76.19268807
  PAW double counting   =     19045.45328342   -17979.19192093
  entropy T*S    EENTRO =         0.04241747
  eigenvalues    EBANDS =     -3626.15309421
  atomic energy  EATOM  =     27521.59385125
  Solvation  Ediel_sol  =         0.00000000
  ---------------------------------------------------
  free energy    TOTEN  =      -112.18013986 eV

  energy without entropy =     -112.22255732  energy(sigma->0) =     -112.19427901


--------------------------------------------------------------------------------------------------------




--------------------------------------- Iteration      1(  23)  ---------------------------------------


    POTLOK:  cpu time    0.0887: real time    0.0959
    SETDIJ:  cpu time    0.0353: real time    0.0353
    EDDIAG:  cpu time    2.6125: real time    2.6132
  RMM-DIIS:  cpu time    1.7540: real time    1.7560
    ORTHCH:  cpu time    0.3812: real time    0.3816
       DOS:  cpu time    0.0020: real time    0.0020
    CHARGE:  cpu time    0.2294: real time    0.2297
    MIXING:  cpu time    0.0232: real time    0.0232
    --------------------------------------------
      LOOP:  cpu time    5.1263: real time    5.1369

 eigenvalue-minimisations  :  5392
 total energy-change (2. order) : 0.5867131E-03  ( 0.2842439E-03)
 number of electron     288.0000159 magnetization 
 augmentation part       48.5999158 magnetization 

 Broyden mixing:
  rms(total) = 0.42503E-03    rms(broyden)= 0.42501E-03
  rms(prec ) = 0.43656E-03
  weight for this iteration     100.00

 eigenvalues of (default mixing * dielectric matrix)
  average eigenvalue GAMMA=   1.0924
  3.4901  2.9909  2.5407  2.0475  1.3113  1.0786  1.0786  0.7845  0.7845  0.7121
  0.7121  0.3167  0.4184  0.4184  0.3680  0.3561  0.1652  0.0900

 Free energy of the ion-electron system (eV)
  ---------------------------------------------------
  alpha Z        PSCENC =       189.86283562
  Ewald energy   TEWEN  =   1157573.46240687
  -Hartree energ DENC   =  -1182913.51011533
  -exchange      EXHF   =         0.00000000
  -V(xc)+E(xc)   XCENC  =        76.19280039
  PAW double counting   =     19045.45136609   -17979.18932348
  entropy T*S    EENTRO =         0.04437956
  eigenvalues    EBANDS =     -3626.08775411
  atomic energy  EATOM  =     27521.59385125
  Solvation  Ediel_sol  =         0.00000000
  ---------------------------------------------------
  free energy    TOTEN  =      -112.17955314 eV

  energy without entropy =     -112.22393270  energy(sigma->0) =     -112.19434633


--------------------------------------------------------------------------------------------------------




--------------------------------------- Iteration      1(  24)  ---------------------------------------


    POTLOK:  cpu time    0.0944: real time    0.1008
    SETDIJ:  cpu time    0.0032: real time    0.0032
    EDDIAG:  cpu time    2.5846: real time    2.5879
  RMM-DIIS:  cpu time    1.7390: real time    1.7424
    ORTHCH:  cpu time    0.3831: real time    0.3833
       DOS:  cpu time    0.0015: real time    0.0015
    CHARGE:  cpu time    0.2289: real time    0.2292
    MIXING:  cpu time    0.0025: real time    0.0025
    --------------------------------------------
      LOOP:  cpu time    5.0372: real time    5.0509

 eigenvalue-minimisations  :  5381
 total energy-change (2. order) : 0.5513094E-03  ( 0.2403624E-02)
 number of electron     288.0000159 magnetization 
 augmentation part       48.5997476 magnetization 

 Broyden mixing:
  rms(total) = 0.54062E-03    rms(broyden)= 0.54051E-03
  rms(prec ) = 0.56258E-03
  weight for this iteration     100.00

 eigenvalues of (default mixing * dielectric matrix)
  average eigenvalue GAMMA=   1.0511
  3.5486  3.0207  2.4952  2.1284  1.3397  1.0691  1.0691  0.8425  0.8425  0.6991
  0.6991  0.4239  0.4239  0.3167  0.3664  0.3569  0.1652  0.0819  0.0819

 Free energy of the ion-electron system (eV)
  ---------------------------------------------------
  alpha Z        PSCENC =       189.86283562
  Ewald energy   TEWEN  =   1157573.46240687
  -Hartree energ DENC   =  -1182913.56431350
  -exchange      EXHF   =         0.00000000
  -V(xc)+E(xc)   XCENC  =        76.19278477
  PAW double counting   =     19045.45395536   -17979.19257179
  entropy T*S    EENTRO =         0.04631831
  eigenvalues    EBANDS =     -3626.03426873
  atomic energy  EATOM  =     27521.59385125
  Solvation  Ediel_sol  =         0.00000000
  ---------------------------------------------------
  free energy    TOTEN  =      -112.17900183 eV

  energy without entropy =     -112.22532015  energy(sigma->0) =     -112.19444127


--------------------------------------------------------------------------------------------------------




[...]
    217       7.7524      0.00000
    218       7.7531      0.00000
    219       8.0018      0.00000
    220       8.0113      0.00000
    221       8.0922      0.00000
    222       8.1640      0.00000
    223       8.2834      0.00000
    224       8.2856      0.00000
    225       8.3658      0.00000
    226       8.4626      0.00000
    227       8.4787      0.00000
    228       8.4810      0.00000
    229       8.4889      0.00000
    230       8.4891      0.00000
    231       8.4903      0.00000
    232       8.5271      0.00000
    233       8.5285      0.00000
    234       8.5358      0.00000
    235       8.5639      0.00000
    236       8.5641      0.00000
    237       8.5722      0.00000
    238       8.6432      0.00000
    239       8.6436      0.00000
    240       8.6659      0.00000
    241       8.7095      0.00000
    242       8.7100      0.00000
    243       8.7170      0.00000
    244       8.8253      0.00000
    245       8.8375      0.00000
    246       8.8386      0.00000
    247       8.8540      0.00000
    248       8.8597      0.00000
    249       8.8610      0.00000
    250       8.9903      0.00000
    251       8.9939      0.00000
    252       9.0341      0.00000
    253       9.0492      0.00000
    254       9.0738      0.00000
    255       9.0785      0.00000
    256       9.2445      0.00000


--------------------------------------------------------------------------------------------------------


 soft charge-density along one line, spin component           1
         0         1         2         3         4         5         6         7         8         9
 total charge-density along one line
 
 pseudopotential strength for first ion, spin component:           1
-22.237   0.000  -0.000  -0.007  -0.000  15.729  -0.000   0.000
  0.000 -22.232  -0.000   0.000  -0.007  -0.000  15.725   0.000
 -0.000  -0.000 -22.241   0.000   0.000   0.000   0.000  15.733
 -0.007   0.000   0.000 -22.232   0.000   0.006  -0.000  -0.000
 -0.000  -0.007   0.000   0.000 -22.237   0.000   0.006  -0.000
 15.729  -0.000   0.000   0.006   0.000  -6.960   0.000  -0.000
 -0.000  15.725   0.000  -0.000   0.006   0.000  -6.957  -0.000
  0.000   0.000  15.733  -0.000  -0.000  -0.000  -0.000  -6.963
  0.006  -0.000  -0.000  15.725  -0.000  -0.004   0.000   0.000
  0.000   0.006  -0.000  -0.000  15.729  -0.000  -0.004   0.000
 -0.000   0.000  -0.000  -0.000   0.000  -0.000   0.000   0.000
 -0.000   0.000  -0.000  -0.000   0.000   0.000   0.000  -0.000
 -0.000  -0.009  -0.000   0.000   0.000   0.000   0.004   0.000
  0.000   0.000  -0.010  -0.000  -0.000   0.000  -0.000   0.004
  0.000   0.000   0.000  -0.009  -0.000  -0.000   0.000  -0.000
  0.000   0.002   0.000  -0.000   0.000  -0.000  -0.002  -0.000
 -0.000  -0.000   0.003   0.000   0.000   0.000   0.000  -0.002
  0.000  -0.000  -0.000   0.002   0.000  -0.000   0.000   0.000
 total augmentation occupancy for first ion, spin component:           1
  1.996   0.000  -0.000  -0.004  -0.000   0.006   0.000  -0.000  -0.010  -0.000   0.000   0.000  -0.000   0.000   0.012   0.000
  0.000   1.998  -0.000   0.000  -0.004   0.000   0.013  -0.000   0.000  -0.010   0.000   0.000  -0.020  -0.000  -0.000  -0.007
 -0.000  -0.000   1.992   0.000   0.000  -0.000  -0.000  -0.001   0.000   0.000  -0.001  -0.000   0.000  -0.004  -0.000  -0.000
 -0.004   0.000   0.000   1.998  -0.000  -0.010   0.000   0.000   0.013  -0.000   0.000  -0.000  -0.000  -0.000  -0.020  -0.000
 -0.000  -0.004   0.000  -0.000   1.996  -0.000  -0.010   0.000  -0.000   0.006  -0.000  -0.000   0.012  -0.000   0.000  -0.004
  0.006   0.000  -0.000  -0.010  -0.000   0.026   0.000  -0.000  -0.021  -0.000   0.000  -0.000  -0.000  -0.000   0.033   0.000
  0.000   0.013  -0.000   0.000  -0.010   0.000   0.042  -0.000   0.000  -0.021   0.000   0.000  -0.042  -0.000  -0.000   0.004
 -0.000  -0.000  -0.001   0.000   0.000  -0.000  -0.000   0.012   0.000   0.000  -0.003   0.001   0.000   0.005  -0.000  -0.000
 -0.010   0.000   0.000   0.013  -0.000  -0.021   0.000   0.000   0.042  -0.000   0.000   0.000  -0.000  -0.000  -0.042   0.000
 -0.000  -0.010   0.000  -0.000   0.006  -0.000  -0.021   0.000  -0.000   0.026  -0.000   0.000   0.033   0.000   0.000  -0.003
  0.000   0.000  -0.001  -0.000  -0.000   0.000   0.000  -0.003  -0.000  -0.000   2.140  -0.058   0.000   0.088  -0.000   0.000
  0.000   0.000  -0.000  -0.000  -0.000  -0.000   0.000   0.001  -0.000   0.000  -0.058   0.029  -0.000  -0.036   0.000   0.000
 -0.000  -0.020   0.000  -0.000   0.012  -0.000  -0.042   0.000  -0.000   0.033   0.000   0.000   0.815   0.000   0.000  -0.081
  0.000  -0.000  -0.004  -0.000  -0.000  -0.000  -0.000   0.005  -0.000   0.000   0.088  -0.036   0.000   0.812   0.000  -0.000
  0.012  -0.000  -0.000  -0.020   0.000   0.033  -0.000  -0.000  -0.042   0.000  -0.000   0.000   0.000   0.000   0.815  -0.000
  0.000  -0.007  -0.000  -0.000  -0.004   0.000   0.004  -0.000   0.000  -0.003   0.000   0.000  -0.081  -0.000  -0.000   0.011
  0.000   0.000  -0.014   0.000  -0.000   0.000   0.000  -0.000   0.000  -0.000  -0.009   0.003  -0.000  -0.080  -0.000   0.000
 -0.004  -0.000   0.000  -0.007  -0.000  -0.003   0.000   0.000   0.004  -0.000  -0.000   0.000  -0.000  -0.000  -0.081   0.000


------------------------ aborting loop because EDIFF is reached ----------------------------------------


 


 total charge     
 
# of ion       s       p       d       tot
------------------------------------------
    1        1.602   1.096   9.935  12.633
    2        1.600   1.102   9.934  12.636
    3        1.599   1.102   9.934  12.636
    4        1.600   1.101   9.935  12.635
    5        1.599   1.102   9.934  12.636
    6        1.600   1.102   9.934  12.636
    7        1.600   1.102   9.934  12.636
    8        1.602   1.096   9.935  12.632
    9        1.600   1.102   9.934  12.636
   10        1.599   1.102   9.934  12.636
   11        1.600   1.100   9.935  12.635
   12        1.599   1.103   9.934  12.637
   13        1.400   1.917   0.019   3.337
   14        1.382   1.971   0.019   3.373
   15        1.394   1.932   0.017   3.343
   16        1.400   1.919   0.019   3.338
   17        1.382   1.974   0.019   3.375
   18        1.401   1.916   0.019   3.336
   19        1.400   1.917   0.019   3.337
   20        1.382   1.971   0.019   3.373
   21        1.401   1.917   0.019   3.336
   22        1.394   1.932   0.017   3.343
   23        1.382   1.974   0.019   3.374
   24        1.400   1.917   0.019   3.337
   25        1.401   1.917   0.019   3.336
   26        1.382   1.971   0.019   3.373
   27        1.400   1.918   0.019   3.337
   28        1.401   1.916   0.019   3.336
   29        1.382   1.971   0.020   3.373
   30        1.400   1.919   0.019   3.337
--------------------------------------------------
tot         44.285  48.079 119.554 211.919
 
    CHARGE:  cpu time    0.2069: real time    0.2069
    FORLOC:  cpu time    0.0022: real time    0.0022
    FORNL :  cpu time    0.5317: real time    0.5320
    STRESS:  cpu time    1.7647: real time    1.7659
    FORCOR:  cpu time    0.0595: real time    0.0595
    FORHAR:  cpu time    0.0133: real time    0.0133
    MIXING:  cpu time    0.0007: real time    0.0007
    OFIELD:  cpu time    0.0000: real time    0.0000

  FORCE on cell =-STRESS in cart. coord.  units (eV):
  Direction    XX          YY          ZZ          XY          YZ          ZX
  --------------------------------------------------------------------------------------
  Alpha Z   189.86284   189.86284   189.86284
  Ewald  ************************************    -0.00018    -0.00020     0.00035
  Hartree************************************     0.00005    -0.00005     0.00008
  E(xc)   -1296.73841 -1296.73845 -1296.62363    -0.00004    -0.00000     0.00000
  Local  ************************************    -0.00106     0.00021    -0.00037
  n-local  3244.87035  3245.89952  3242.24440   -12.70249    -0.35617    18.99443
  augment  1116.84246  1116.84332  1119.09180     0.00075     0.00000    -0.00000
  Kinetic  2585.34080  2629.79841  2610.85345   -56.63092     0.21178    -1.10122
  Fock        0.00000     0.00000     0.00000     0.00000     0.00000     0.00000
  -------------------------------------------------------------------------------------
  Total      -1.79103    -1.79103    -1.54130    -0.00000     0.00000    -0.00000
  in kB      -1.30927    -1.30927    -1.12671    -0.00000     0.00000    -0.00000
  external pressure =       -1.25 kB  Pullay stress =        0.00 kB


 VOLUME and BASIS-vectors are now :
 -----------------------------------------------------------------------------
  energy-cutoff  :      300.00
  volume of cell :     2191.73
      direct lattice vectors                 reciprocal lattice vectors
     4.450883993  0.000000000  0.000000000     0.224674469  0.129715840  0.000000000
    -2.225441673  3.854578795  0.000000000     0.000000000  0.259431718  0.000000000
     0.000000000  0.000000000127.750642465    -0.000000000 -0.000000000  0.007827749

  length of vectors
     4.450883993  4.450883993127.750642465     0.259431718  0.259431718  0.007827749


 FORCES acting on ions
    electron-ion (+dipol)            ewald-force                    non-local-force                 convergence-correction
 -----------------------------------------------------------------------------------------------
   0.225E-02 -.130E-02 0.105E+05   0.267E-03 -.154E-03 -.104E+05   0.179E-17 -.773E-17 -.502E+01   -.519E-08 0.299E-08 -.877E-02
   0.226E-02 -.130E-02 0.942E+03   0.304E-03 -.175E-03 -.947E+03   -.126E-16 0.767E-17 0.475E+01   -.524E-08 0.303E-08 -.463E-02
   0.123E-05 -.574E-06 0.665E+04   0.507E-04 -.293E-04 -.665E+04   0.769E-17 -.266E-17 -.481E+01   -.213E-08 0.123E-08 -.119E-02
   -.940E-06 0.662E-06 0.854E+04   -.496E-04 0.287E-04 -.854E+04   0.147E-17 -.308E-17 0.469E+01   -.106E-07 0.611E-08 -.101E-01
   -.226E-02 0.130E-02 0.285E+04   -.304E-03 0.175E-03 -.285E+04   -.143E-16 0.784E-17 -.476E+01   0.607E-09 -.350E-09 -.463E-02
   -.225E-02 0.130E-02 0.474E+04   -.267E-03 0.154E-03 -.474E+04   -.109E-16 0.178E-18 0.470E+01   0.499E-08 -.288E-08 -.334E-02
   0.225E-02 -.130E-02 -.943E+03   0.267E-03 -.154E-03 0.947E+03   -.821E-17 0.169E-17 -.474E+01   -.384E-08 0.222E-08 -.534E-02
   0.226E-02 -.131E-02 -.104E+05   0.305E-03 -.176E-03 0.104E+05   -.177E-17 0.578E-17 0.503E+01   0.192E-07 -.111E-07 0.634E-03
   0.898E-06 -.616E-06 -.474E+04   0.494E-04 -.285E-04 0.474E+04   -.273E-17 -.134E-17 -.469E+01   -.181E-07 0.104E-07 0.908E-02
   -.114E-05 0.577E-06 -.286E+04   -.504E-04 0.291E-04 0.285E+04   -.224E-17 0.142E-18 0.476E+01   -.938E-09 0.541E-09 -.405E-02
   -.226E-02 0.130E-02 -.854E+04   -.304E-03 0.175E-03 0.854E+04   -.330E-18 0.876E-17 -.469E+01   -.171E-08 0.986E-09 0.854E-02
   -.225E-02 0.130E-02 -.665E+04   -.267E-03 0.154E-03 0.665E+04   0.959E-18 0.412E-17 0.481E+01   0.433E-08 -.250E-08 0.119E-01
   -.628E-03 0.363E-03 0.417E+02   -.221E-03 0.127E-03 -.362E+02   -.178E-16 0.643E-17 -.549E+01   0.105E-08 -.609E-09 -.161E-02
   0.440E-08 -.504E-08 0.759E+03   -.258E-07 0.149E-07 -.759E+03   0.108E-18 -.359E-19 0.483E-02   -.746E-09 0.430E-09 -.177E-02
   0.525E-04 -.307E-04 0.451E+04   -.120E-03 0.695E-04 -.452E+04   0.462E-16 -.288E-16 0.575E+01   0.235E-09 -.135E-09 -.123E-02
   0.657E-03 -.379E-03 0.308E+04   0.138E-03 -.796E-04 -.307E+04   -.533E-18 -.142E-16 -.545E+01   -.186E-08 0.107E-08 -.260E-02
   -.599E-03 0.345E-03 0.380E+04   -.220E-03 0.127E-03 -.380E+04   0.680E-18 -.292E-18 0.152E-01   -.495E-10 0.286E-10 -.437E-02
   -.657E-03 0.379E-03 0.300E+04   -.138E-03 0.796E-04 -.300E+04   0.607E-17 -.529E-17 0.553E+01   0.265E-10 -.153E-10 -.786E-03
   -.530E-04 0.308E-04 0.156E+04   0.113E-03 -.650E-04 -.156E+04   -.355E-16 -.104E-16 -.547E+01   0.116E-08 -.667E-09 -.795E-03
   0.599E-03 -.346E-03 0.228E+04   0.220E-03 -.127E-03 -.228E+04   -.279E-18 0.150E-18 0.174E-01   -.112E-08 0.649E-09 -.617E-03
   0.628E-03 -.363E-03 0.148E+04   0.221E-03 -.127E-03 -.148E+04   -.100E-16 -.169E-16 0.550E+01   0.311E-09 -.180E-09 -.131E-02
   -.633E-03 0.366E-03 -.451E+04   -.215E-03 0.124E-03 0.452E+04   0.649E-16 -.253E-17 -.575E+01   -.563E-08 0.325E-08 0.185E-02
   -.294E-06 0.357E-06 -.380E+04   0.931E-06 -.537E-06 0.380E+04   -.366E-18 0.436E-19 -.117E-01   0.313E-08 -.181E-08 0.267E-02
   0.531E-04 -.309E-04 -.419E+02   -.113E-03 0.652E-04 0.364E+02   0.288E-17 -.104E-17 0.549E+01   -.145E-10 0.838E-11 -.168E-02
   0.657E-03 -.379E-03 -.148E+04   0.138E-03 -.796E-04 0.148E+04   0.248E-16 0.829E-17 -.550E+01   0.568E-09 -.328E-09 -.328E-03
   -.599E-03 0.346E-03 -.760E+03   -.220E-03 0.127E-03 0.760E+03   -.991E-19 -.975E-20 -.548E-02   0.709E-10 -.409E-10 -.203E-02
   -.657E-03 0.379E-03 -.156E+04   -.137E-03 0.794E-04 0.155E+04   -.186E-16 -.106E-16 0.547E+01   0.129E-08 -.742E-09 0.246E-02
   -.532E-04 0.310E-04 -.300E+04   0.113E-03 -.654E-04 0.300E+04   0.241E-16 0.136E-16 -.553E+01   -.551E-09 0.318E-09 0.286E-02
   0.599E-03 -.346E-03 -.228E+04   0.220E-03 -.127E-03 0.228E+04   -.232E-18 0.389E-19 -.133E-01   0.529E-09 -.306E-09 0.436E-02
   0.628E-03 -.363E-03 -.308E+04   0.220E-03 -.127E-03 0.307E+04   -.143E-16 -.559E-17 0.546E+01   0.140E-08 -.807E-09 0.203E-02
 -----------------------------------------------------------------------------------------------
   -.279E-05 0.175E-05 -.379E-01   -.311E-13 0.415E-12 -.182E-11   0.309E-16 -.456E-16 0.505E-01   -.188E-07 0.109E-07 -.148E-01
 
 
 POSITION                                       TOTAL-FORCE (eV/Angst)
 -----------------------------------------------------------------------------------
     -0.00000      2.56972      3.27294         0.000000     -0.000000     -0.016730
     -0.00000      2.56972     28.66943         0.000000     -0.000000     -0.006817
     -0.00000      0.00000     13.91248         0.000000     -0.000000      0.003729
     -0.00000      0.00000      7.37814         0.000000     -0.000000      0.002340
      2.22544      1.28486     24.55874        -0.000000      0.000000      0.004126
      2.22544      1.28486     18.02339        -0.000000      0.000000     -0.000318
     -0.00000      2.56972     35.20658        -0.000000      0.000000      0.001015
     -0.00000      2.56972     60.61037        -0.000000     -0.000000      0.007203
      0.00000      0.00000     45.85647         0.000000     -0.000000     -0.014645
     -0.00000      0.00000     39.31525         0.000000     -0.000000      0.000958
      2.22544      1.28486     56.49955        -0.000000     -0.000000     -0.002099
      2.22544      1.28486     49.96225         0.000000     -0.000000     -0.006143
      2.22544      1.28486     30.39070         0.000000     -0.000000      0.000294
     -0.00000      0.00000     26.61421         0.000000     -0.000000      0.002381
     -0.00000      0.00000      1.56271         0.000000     -0.000000      0.005544
     -0.00000      2.56972      9.09991        -0.000000      0.000000      0.003740
      2.22544      1.28486      5.32912         0.000000     -0.000000      0.003407
      2.22544      1.28486     12.19197         0.000000     -0.000000      0.002981
     -0.00000      0.00000     19.74629         0.000000     -0.000000     -0.004241
     -0.00000      2.56972     15.97079        -0.000000     -0.000000     -0.000452
     -0.00000      2.56972     22.83764        -0.000000      0.000000      0.000205
      2.22544      1.28486     62.32092        -0.000000      0.000000     -0.008847
     -0.00000      0.00000     58.55065         0.000000     -0.000000     -0.000083
     -0.00000      0.00000     33.48487         0.000000     -0.000000      0.001369
     -0.00000      2.56972     41.03622         0.000000     -0.000000      0.000680
      2.22544      1.28486     37.26029        -0.000000      0.000000     -0.001113
      2.22544      1.28486     44.13295         0.000000     -0.000000      0.005287
     -0.00000      0.00000     51.68138         0.000000     -0.000000      0.004701
     -0.00000      2.56972     47.90526         0.000000     -0.000000      0.005587
     -0.00000      2.56972     54.77615         0.000000     -0.000000      0.005940
 -----------------------------------------------------------------------------------
    total drift:                               -0.000003      0.000002     -0.002262


--------------------------------------------------------------------------------------------------------



  FREE ENERGIE OF THE ION-ELECTRON SYSTEM (eV)
  ---------------------------------------------------
  free  energy   TOTEN  =      -112.18179935 eV

  energy  without entropy=     -112.22247671  energy(sigma->0) =     -112.19535847
 
 d Force = 0.4468039E-04[-0.226E-05, 0.916E-04]  d Energy = 0.4495440E-04-0.274E-06
 d Force =-0.1659483E+02[-0.166E+02,-0.166E+02]  d Ewald  =-0.1659483E+02 0.445E-07


--------------------------------------------------------------------------------------------------------


    POTLOK:  cpu time    0.0769: real time    0.0770


--------------------------------------------------------------------------------------------------------




--------------------------------------------------------------------------------------------------------


  
 reached required accuracy - stopping structural energy minimisation
 writing wavefunctions
     LOOP+:  cpu time   76.0088: real time   85.9143
    4ORBIT:  cpu time    0.0000: real time    0.0000
 


 total charge     
 
# of ion       s       p       d       tot
------------------------------------------
    1        1.602   1.096   9.935  12.633
    2        1.600   1.102   9.934  12.636
    3        1.599   1.102   9.934  12.636
    4        1.600   1.101   9.935  12.635
    5        1.599   1.102   9.934  12.636
    6        1.600   1.102   9.934  12.636
    7        1.600   1.102   9.934  12.636
    8        1.602   1.096   9.935  12.632
    9        1.600   1.102   9.934  12.636
   10        1.599   1.102   9.934  12.636
   11        1.600   1.100   9.935  12.635
   12        1.599   1.103   9.934  12.637
   13        1.400   1.917   0.019   3.337
   14        1.382   1.971   0.019   3.373
   15        1.394   1.932   0.017   3.343
   16        1.400   1.919   0.019   3.338
   17        1.382   1.974   0.019   3.375
   18        1.401   1.916   0.019   3.336
   19        1.400   1.917   0.019   3.337
   20        1.382   1.971   0.019   3.373
   21        1.401   1.917   0.019   3.336
   22        1.394   1.932   0.017   3.343
   23        1.382   1.974   0.019   3.374
   24        1.400   1.917   0.019   3.337
   25        1.401   1.917   0.019   3.336
   26        1.382   1.971   0.019   3.373
   27        1.400   1.918   0.019   3.337
   28        1.401   1.916   0.019   3.336
   29        1.382   1.971   0.020   3.373
   30        1.400   1.919   0.019   3.337
--------------------------------------------------
tot         44.285  48.079 119.554 211.919
 

 total amount of memory used by VASP MPI-rank0    91185. kBytes
=======================================================================

   base      :      30000. kBytes
   nonl-proj :      39616. kBytes
   fftplans  :       6730. kBytes
   grid      :      10591. kBytes
   one-center:        124. kBytes
   wavefun   :       4124. kBytes
 
  
  
 General timing and accounting informations for this job:
 ========================================================
  
                  Total CPU time used (sec):     1185.070
                            User time (sec):     1154.851
                          System time (sec):       30.219
                         Elapsed time (sec):     1208.461
  
                   Maximum memory used (kb):      304956.
                   Average memory used (kb):           0.
  
                          Minor page faults:       486140
                          Major page faults:           44
                 Voluntary context switches:        18529
