 vasp.5.4.4.18Apr17-6-g9f103f2a35 (build Aug 29 2022 10:07:22) complex          
  
 executed on           IFC91_ompi date 2022.09.30  23:56:30
 running on  512 total cores
 distrk:  each k-point on  512 cores,    1 groups
 distr:  one band on NCORES_PER_BAND=   4 cores,  128 groups


--------------------------------------------------------------------------------------------------------


 INCAR:
 POTCAR:   PAW_PBE Sb 06Sep2000                   
 POTCAR:   PAW_PBE Te 08Apr2002                   

 ----------------------------------------------------------------------------- 
|                                                                             |
|           W    W    AA    RRRRR   N    N  II  N    N   GGGG   !!!           |
|           W    W   A  A   R    R  NN   N  II  NN   N  G    G  !!!           |
|           W    W  A    A  R    R  N N  N  II  N N  N  G       !!!           |
|           W WW W  AAAAAA  RRRRR   N  N N  II  N  N N  G  GGG   !            |
|           WW  WW  A    A  R   R   N   NN  II  N   NN  G    G                |
|           W    W  A    A  R    R  N    N  II  N    N   GGGG   !!!           |
|                                                                             |
|      For optimal performance we recommend to set                            |
|        NCORE= 4 - approx SQRT( number of cores)                             |
|      NCORE specifies how many cores store one orbital (NPAR=cpu/NCORE).     |
|      This setting can  greatly improve the performance of VASP for DFT.     |
|      The default,   NCORE=1            might be grossly inefficient         |
|      on modern multi-core architectures or massively parallel machines.     |
|      Do your own testing !!!!                                               |
|      Unfortunately you need to use the default for GW and RPA calculations. |
|      (for HF NCORE is supported but not extensively tested yet)             |
|                                                                             |
 ----------------------------------------------------------------------------- 

 POTCAR:   PAW_PBE Sb 06Sep2000                   
   VRHFIN =Sb: s2p3                                                             
   LEXCH  = PE                                                                  
   EATOM  =   149.8037 eV,   11.0103 Ry                                         
                                                                                
   TITEL  = PAW_PBE Sb 06Sep2000                                                
   LULTRA =        F    use ultrasoft PP ?                                      
   IUNSCR =        1    unscreen: 0-lin 1-nonlin 2-no                           
   RPACOR =    2.200    partial core radius                                     
   POMASS =  121.750; ZVAL   =    5.000    mass and valenz                      
   RCORE  =    2.300    outmost cutoff radius                                   
   RWIGS  =    2.980; RWIGS  =    1.577    wigner-seitz radius (au A)           
   ENMAX  =  172.037; ENMIN  =  129.028 eV                                      
   ICORE  =        3    local potential                                         
   LCOR   =        T    correct aug charges                                     
   LPAW   =        T    paw PP                                                  
   EAUG   =  380.513                                                            
   DEXC   =    -.415                                                            
   RMAX   =    3.515    core radius for proj-oper                               
   RAUG   =    1.300    factor for augmentation sphere                          
   RDEP   =    2.360    radius for radial grids                                 
   QCUT   =   -3.556; QGAM   =    7.112    optimization parameters              
                                                                                
   Description                                                                  
     l     E      TYP  RCUT    TYP  RCUT                                        
     0   .000     23  2.300                                                     
     0  1.000     23  2.300                                                     
     1   .000     23  2.300                                                     
     1   .000     23  2.300                                                     
     2   .000     23  2.300                                                     
     3  -.100     23  2.300                                                     
  local pseudopotential read in
  partial core-charges read in
  atomic valenz-charges read in
  non local Contribution for L=           0  read in
    real space projection operators read in
  non local Contribution for L=           0  read in
    real space projection operators read in
  non local Contribution for L=           1  read in
    real space projection operators read in
  non local Contribution for L=           1  read in
    real space projection operators read in
  non local Contribution for L=           2  read in
    real space projection operators read in
    PAW grid and wavefunctions read in
 
   number of l-projection  operators is LMAX  =           5
   number of lm-projection operators is LMMAX =          13
 
 POTCAR:   PAW_PBE Te 08Apr2002                   
   VRHFIN =Te: s2p4                                                             
   LEXCH  = PE                                                                  
   EATOM  =   223.2721 eV,   16.4100 Ry                                         
                                                                                
   TITEL  = PAW_PBE Te 08Apr2002                                                
   LULTRA =        F    use ultrasoft PP ?                                      
   IUNSCR =        1    unscreen: 0-lin 1-nonlin 2-no                           
   RPACOR =    2.200    partial core radius                                     
   POMASS =  127.600; ZVAL   =    6.000    mass and valenz                      
   RCORE  =    2.300    outmost cutoff radius                                   
   RWIGS  =    2.900; RWIGS  =    1.535    wigner-seitz radius (au A)           
   ENMAX  =  174.982; ENMIN  =  131.236 eV                                      
   ICORE  =        3    local potential                                         
   LCOR   =        T    correct aug charges                                     
   LPAW   =        T    paw PP                                                  
   EAUG   =  368.792                                                            
   DEXC   =    -.169                                                            
   RMAX   =    3.486    core radius for proj-oper                               
   RAUG   =    1.300    factor for augmentation sphere                          
   RDEP   =    2.397    radius for radial grids                                 
   QCUT   =   -3.586; QGAM   =    7.172    optimization parameters              
                                                                                
   Description                                                                  
     l     E      TYP  RCUT    TYP  RCUT                                        
     0   .000     23  2.300                                                     
     0   .000     23  2.300                                                     
     1   .000     23  2.300                                                     
     1   .000     23  2.300                                                     
     2   .000     23  2.300                                                     
     3  -.100     23  2.300                                                     
  local pseudopotential read in
  partial core-charges read in
  atomic valenz-charges read in
  non local Contribution for L=           0  read in
    real space projection operators read in
  non local Contribution for L=           0  read in
    real space projection operators read in
  non local Contribution for L=           1  read in
    real space projection operators read in
  non local Contribution for L=           1  read in
    real space projection operators read in
  non local Contribution for L=           2  read in
    real space projection operators read in
    PAW grid and wavefunctions read in
 
   number of l-projection  operators is LMAX  =           5
   number of lm-projection operators is LMMAX =          13
 

 ----------------------------------------------------------------------------- 
|                                                                             |
|  ADVICE TO THIS USER RUNNING 'VASP/VAMP'   (HEAR YOUR MASTER'S VOICE ...):  |
|                                                                             |
|      You have a (more or less) 'large supercell' and for larger cells       |
|      it might be more efficient to use real space projection operators      |
|      So try LREAL= Auto  in the INCAR   file.                               |
|      Mind: If you want to do a very accurate calculations keep the          |
|      reciprocal projection scheme          (i.e. LREAL=.FALSE.)             |
|                                                                             |
 ----------------------------------------------------------------------------- 

 PAW_PBE Sb 06Sep2000                   :
 energy of atom  1       EATOM= -149.8037
 kinetic energy error for atom=    0.0018 (will be added to EATOM!!)
 PAW_PBE Te 08Apr2002                   :
 energy of atom  2       EATOM= -223.2721
 kinetic energy error for atom=    0.0026 (will be added to EATOM!!)
 
 
 POSCAR: Sb12 Te18                               
  positions in direct lattice
  No initial velocities read in
 exchange correlation table for  LEXCH =        8
   RHO(1)=    0.500       N(1)  =     2000
   RHO(2)=  100.500       N(2)  =     4000
 


--------------------------------------------------------------------------------------------------------


 ion  position               nearest neighbor table
   1  0.667  0.063  0.224-  23 3.03  14 3.03  15 3.19  24 3.19
   2  0.667  0.270  0.026-  13 3.03  22 3.03  27 3.19  18 3.19
   3  0.000  0.397  0.058-  17 3.03  26 3.03  18 3.19  27 3.19
   4  0.000  0.603  0.109-  16 3.03  25 3.03  21 3.19  30 3.19
   5  0.333  0.730  0.141-  20 3.03  29 3.03  30 3.19  21 3.19
   6  0.333  0.937  0.192-  28 3.03  19 3.03  15 3.19  24 3.19
   7  0.667  0.063  0.474-  14 3.03  23 3.03  24 3.19  15 3.19
   8  0.667  0.270  0.276-  22 3.03  13 3.03  18 3.19  27 3.19
   9  0.000  0.397  0.308-  26 3.03  17 3.03  27 3.19  18 3.19
  10  0.000  0.603  0.359-  25 3.03  16 3.03  30 3.19  21 3.19
  11  0.333  0.730  0.391-  29 3.03  20 3.03  21 3.19  30 3.19
  12  0.333  0.937  0.442-  19 3.03  28 3.03  24 3.19  15 3.19
  13  0.000  0.215  0.012-   2 3.03   8 3.03
  14  0.333  0.118  0.238-   7 3.03   1 3.03
  15  0.000  0.000  0.208-   1 3.19   6 3.19  12 3.19   7 3.19
  16  0.333  0.549  0.096-   4 3.03  10 3.03
  17  0.667  0.451  0.071-   3 3.03   9 3.03
  18  0.333  0.333  0.042-   8 3.19   2 3.19   3 3.19   9 3.19
  19  0.667  0.882  0.179-  12 3.03   6 3.03
  20  0.000  0.785  0.154-   5 3.03  11 3.03
  21  0.667  0.667  0.125-  11 3.19   5 3.19   4 3.19  10 3.19
  22  0.000  0.215  0.262-   8 3.03   2 3.03
  23  0.333  0.118  0.488-   1 3.03   7 3.03
  24  0.000  0.000  0.458-   7 3.19  12 3.19   6 3.19   1 3.19
  25  0.333  0.549  0.346-  10 3.03   4 3.03
  26  0.667  0.451  0.321-   9 3.03   3 3.03
  27  0.333  0.333  0.292-   2 3.19   8 3.19   9 3.19   3 3.19
  28  0.667  0.882  0.429-   6 3.03  12 3.03
  29  0.000  0.785  0.404-  11 3.03   5 3.03
  30  0.667  0.667  0.375-   5 3.19  11 3.19  10 3.19   4 3.19
 
  LATTYP: Found a base centered monoclinic cell.
 ALAT       =    62.8240423893
 B/A-ratio  =     0.1193953554
 C/A-ratio  =     1.0000000000
 COS(beta)  =    -0.9835112059
  
  Lattice vectors:
  
 A1 = (  -3.7504494696,  31.3373012840,   2.1653229573)
 A2 = (  -0.0000000000,  31.3373012840,  -4.3306459950)
 A3 = (  -3.7504494696, -62.6746025679,  -2.1653230376)


Analysis of symmetry for initial positions (statically):
=====================================================================
 Subroutine PRICEL returns:
 Original cell was already a primitive cell.
 

 Routine SETGRP: Setting up the symmetry group for a 
 base centered monoclinic supercell.


 Subroutine GETGRP returns: Found  2 space group operations
 (whereof  1 operations were pure point group operations)
 out of a pool of  4 trial point group operations.


The static configuration has the point symmetry C_1 .
 The point group associated with its full space group is S_2 .


Analysis of symmetry for dynamics (positions and initial velocities):
=====================================================================
 Subroutine PRICEL returns:
 Original cell was already a primitive cell.
 

 Routine SETGRP: Setting up the symmetry group for a 
 base centered monoclinic supercell.


 Subroutine GETGRP returns: Found  2 space group operations
 (whereof  1 operations were pure point group operations)
 out of a pool of  4 trial point group operations.


The dynamic configuration has the point symmetry C_1 .
 The point group associated with its full space group is S_2 .


Analysis of constrained symmetry for selective dynamics:
=====================================================================
 Subroutine PRICEL returns:
 Original cell was already a primitive cell.
 

 Routine SETGRP: Setting up the symmetry group for a 
 base centered monoclinic supercell.


 Subroutine GETGRP returns: Found  1 space group operations
 (whereof  1 operations were pure point group operations)
 out of a pool of  4 trial point group operations.


The constrained configuration has the point symmetry C_1 .


 Subroutine INISYM returns: Found  1 space group operations
 (whereof  1 operations are pure point group operations),
 and found     1 'primitive' translations

 
 
 KPOINTS: k-point density of [50, 50, 50]/[a, b, c

Automatic generation of k-mesh.
Space group operators:
 irot       det(A)        alpha          n_x          n_y          n_z        tau_x        tau_y        tau_z
    1     1.000000     0.000000     1.000000     0.000000     0.000000     0.000000     0.000000     0.000000
 
 Subroutine IBZKPT returns following result:
 ===========================================
 
 Found     22 irreducible k-points:
 
 Following reciprocal coordinates:
            Coordinates               Weight
  0.000000  0.000000  0.000000      1.000000
  0.142857  0.000000  0.000000      2.000000
  0.285714 -0.000000  0.000000      2.000000
  0.428571 -0.000000  0.000000      2.000000
  0.000000  0.500000  0.000000      1.000000
  0.142857  0.500000  0.000000      2.000000
  0.285714  0.500000  0.000000      2.000000
  0.428571  0.500000  0.000000      2.000000
 -0.000000 -0.000000  0.333333      2.000000
  0.142857 -0.000000  0.333333      2.000000
  0.285714 -0.000000  0.333333      2.000000
  0.428571 -0.000000  0.333333      2.000000
 -0.428571 -0.000000  0.333333      2.000000
 -0.285714 -0.000000  0.333333      2.000000
 -0.142857 -0.000000  0.333333      2.000000
 -0.000000  0.500000  0.333333      2.000000
  0.142857  0.500000  0.333333      2.000000
  0.285714  0.500000  0.333333      2.000000
  0.428571  0.500000  0.333333      2.000000
 -0.428571  0.500000  0.333333      2.000000
 -0.285714  0.500000  0.333333      2.000000
 -0.142857  0.500000  0.333333      2.000000
 
 Following cartesian coordinates:
            Coordinates               Weight
  0.000000  0.000000  0.000000      1.000000
  0.038091  0.000000  0.000000      2.000000
  0.076181  0.000000  0.000000      2.000000
  0.114272  0.000000  0.000000      2.000000
  0.000000  0.015955  0.000000      1.000000
  0.038091  0.015955  0.000000      2.000000
  0.076181  0.015955  0.000000      2.000000
  0.114272  0.015955  0.000000      2.000000
  0.033329  0.002659  0.019243      2.000000
  0.071420  0.002659  0.019243      2.000000
  0.109511  0.002659  0.019243      2.000000
  0.147601  0.002659  0.019243      2.000000
 -0.080943  0.002659  0.019243      2.000000
 -0.042852  0.002659  0.019243      2.000000
 -0.004761  0.002659  0.019243      2.000000
  0.033329  0.018615  0.019243      2.000000
  0.071420  0.018615  0.019243      2.000000
  0.109511  0.018615  0.019243      2.000000
  0.147601  0.018615  0.019243      2.000000
 -0.080943  0.018615  0.019243      2.000000
 -0.042852  0.018615  0.019243      2.000000
 -0.004761  0.018615  0.019243      2.000000
 


--------------------------------------------------------------------------------------------------------




 Dimension of arrays:
   k-points           NKPTS =     22   k-points in BZ     NKDIM =     22   number of bands    NBANDS=    128
   number of dos      NEDOS =    301   number of ions     NIONS =     30
   non local maximal  LDIM  =      5   non local SUM 2l+1 LMDIM =     13
   total plane-waves  NPLWV = 740880
   max r-space proj   IRMAX =      1   max aug-charges    IRDMAX=  21363
   dimension x,y,z NGX =    42 NGY =  180 NGZ =   98
   dimension x,y,z NGXF=    84 NGYF=  360 NGZF=  196
   support grid    NGXF=    84 NGYF=  360 NGZF=  196
   ions per type =              12  18
   NGX,Y,Z   is equivalent  to a cutoff of   9.31,  9.46,  9.41 a.u.
   NGXF,Y,Z  is equivalent  to a cutoff of  18.62, 18.92, 18.81 a.u.

 SYSTEM =  Tetradymite Slab                        
 POSCAR =  Sb12 Te18                               

 Startparameter for this run:
   NWRITE =      2    write-flag & timer
   PREC   = accura    normal or accurate (medium, high low for compatibility)
   ISTART =      0    job   : 0-new  1-cont  2-samecut
   ICHARG =      2    charge: 1-file 2-atom 10-const
   ISPIN  =      1    spin polarized calculation?
   LNONCOLLINEAR =      F non collinear calculations
   LSORBIT =      F    spin-orbit coupling
   INIWAV =      1    electr: 0-lowe 1-rand  2-diag
   LASPH  =      F    aspherical Exc in radial PAW
   METAGGA=      F    non-selfconsistent MetaGGA calc.

 Electronic Relaxation 1
   ENCUT  =  300.0 eV  22.05 Ry    4.70 a.u.  10.59 44.68 24.46*2*pi/ulx,y,z
   ENINI  =  300.0     initial cutoff
   ENAUG  =  380.5 eV  augmentation charge cutoff
   NELM   =     80;   NELMIN=  2; NELMDL= -5     # of ELM steps 
   EDIFF  = 0.1E-05   stopping-criterion for ELM
   LREAL  =      F    real-space projection
   NLSPLINE    = F    spline interpolate recip. space projectors
   LCOMPAT=      F    compatible to vasp.4.4
   GGA_COMPAT  = T    GGA compatible to vasp.4.4-vasp.4.6
   LMAXPAW     = -100 max onsite density
   LMAXMIX     =    2 max onsite mixed and CHGCAR
   VOSKOWN=      0    Vosko Wilk Nusair interpolation
   ROPT   =    0.00000   0.00000
 Ionic relaxation
   EDIFFG = -.1E-01   stopping-criterion for IOM
   NSW    =     20    number of steps for IOM
   NBLOCK =      1;   KBLOCK =     20    inner block; outer block 
   IBRION =      2    ionic relax: 0-MD 1-quasi-New 2-CG
   NFREE  =      1    steps in history (QN), initial steepest desc. (CG)
   ISIF   =      2    stress and relaxation
   IWAVPR =     11    prediction:  0-non 1-charg 2-wave 3-comb
   ISYM   =      2    0-nonsym 1-usesym 2-fastsym
   LCORR  =      T    Harris-Foulkes like correction to forces

   POTIM  = 0.5000    time-step for ionic-motion
   TEIN   =    0.0    initial temperature
   TEBEG  =    0.0;   TEEND  =   0.0 temperature during run
   SMASS  =  -3.00    Nose mass-parameter (am)
   estimated Nose-frequenzy (Omega)   =  0.10E-29 period in steps =****** mass=  -0.129E-26a.u.
   SCALEE = 1.0000    scale energy and forces
   NPACO  =    256;   APACO  = 16.0  distance and # of slots for P.C.
   PSTRESS=    0.0 pullay stress

  Mass of Ions in am
   POMASS = 121.75127.60
  Ionic Valenz
   ZVAL   =   5.00  6.00
  Atomic Wigner-Seitz radii
   RWIGS  =  -1.00 -1.00
  virtual crystal weights 
   VCA    =   1.00  1.00
   NELECT =     168.0000    total number of electrons
   NUPDOWN=      -1.0000    fix difference up-down

 DOS related values:
   EMIN   =  10.00;   EMAX   =-10.00  energy-range for DOS
   EFERMI =   0.00
   ISMEAR =     1;   SIGMA  =   0.20  broadening in eV -4-tet -1-fermi 0-gaus

 Electronic relaxation 2 (details)
   IALGO  =     68    algorithm
   LDIAG  =      T    sub-space diagonalisation (order eigenvalues)
   LSUBROT=      F    optimize rotation matrix (better conditioning)
   TURBO    =      0    0=normal 1=particle mesh
   IRESTART =      0    0=no restart 2=restart with 2 vectors
   NREBOOT  =      0    no. of reboots
   NMIN     =      0    reboot dimension
   EREF     =   0.00    reference energy to select bands
   IMIX   =      4    mixing-type and parameters
     AMIX     =   0.40;   BMIX     =  1.00
     AMIX_MAG =   1.60;   BMIX_MAG =  1.00
     AMIN     =   0.10
     WC   =   100.;   INIMIX=   1;  MIXPRE=   1;  MAXMIX= -45

 Intra band minimization:
   WEIMIN = 0.0010     energy-eigenvalue tresh-hold
   EBREAK =  0.20E-08  absolut break condition
   DEPER  =   0.30     relativ break condition  

   TIME   =   0.40     timestep for ELM

  volume/ion in A,a.u.               =      67.86       457.97
  Fermi-wavevector in a.u.,A,eV,Ry     =   0.712731  1.346866  6.911554  0.507985
  Thomas-Fermi vector in A             =   1.800183
 
 Write flags
   LWAVE        =      T    write WAVECAR
   LDOWNSAMPLE  =      F    k-point downsampling of WAVECAR
   LCHARG       =      T    write CHGCAR
   LVTOT        =      F    write LOCPOT, total local potential
   LVHAR        =      F    write LOCPOT, Hartree potential only
   LELF         =      F    write electronic localiz. function (ELF)
   LORBIT       =     11    0 simple, 1 ext, 2 COOP (PROOUT), +10 PAW based schemes


 Dipole corrections
   LMONO  =      F    monopole corrections only (constant potential shift)
   LDIPOL =      F    correct potential (dipole corrections)
   IDIPOL =      0    1-x, 2-y, 3-z, 4-all directions 
   EPSILON=  1.0000000 bulk dielectric constant

 Exchange correlation treatment:
   GGA     =    --    GGA type
   LEXCH   =     8    internal setting for exchange type
   VOSKOWN=      0    Vosko Wilk Nusair interpolation
   LHFCALC =     F    Hartree Fock is set to
   LHFONE  =     F    Hartree Fock one center treatment
   AEXX    =    0.0000 exact exchange contribution

 Linear response parameters
   LEPSILON=     F    determine dielectric tensor
   LRPA    =     F    only Hartree local field effects (RPA)
   LNABLA  =     F    use nabla operator in PAW spheres
   LVEL    =     F    velocity operator in full k-point grid
   LINTERFAST=   F  fast interpolation
   KINTER  =     0    interpolate to denser k-point grid
   CSHIFT  =0.1000    complex shift for real part using Kramers Kronig
   OMEGAMAX=  -1.0    maximum frequency
   DEG_THRESHOLD= 0.2000000E-02 threshold for treating states as degnerate
   RTIME   =   -0.100 relaxation time in fs
  (WPLASMAI=    0.000 imaginary part of plasma frequency in eV, 0.658/RTIME)
   DFIELD  = 0.0000000 0.0000000 0.0000000 field for delta impulse in time
 
 Orbital magnetization related:
   ORBITALMAG=     F  switch on orbital magnetization
   LCHIMAG   =     F  perturbation theory with respect to B field
   DQ        =  0.001000  dq finite difference perturbation B field
   LLRAUG    =     F  two centre corrections for induced B field



--------------------------------------------------------------------------------------------------------


 conjugate gradient relaxation of ions
   using selective dynamics as specified on POSCAR
 charge density and potential will be updated during run
 non-spin polarized calculation
 RMM-DIIS sequential band-by-band and
  variant of blocked Davidson during initial phase
 perform sub-space diagonalisation
    before iterative eigenvector-optimisation
 modified Broyden-mixing scheme, WC =      100.0
 initial mixing is a Kerker type mixing with AMIX =  0.4000 and BMIX =      1.0000
 Hartree-type preconditioning will be used
 using additional bands           44
 reciprocal scheme for non local part
 use partial core corrections
 calculate Harris-corrections to forces 
   (improved forces if not selfconsistent)
 use gradient corrections 
 use of overlap-Matrix (Vanderbilt PP)
 Methfessel and Paxton  Order N= 1 SIGMA  =   0.20


--------------------------------------------------------------------------------------------------------


  energy-cutoff  :      300.00
  volume of cell :     2035.91
      direct lattice vectors                 reciprocal lattice vectors
     3.750449470  0.000000000 -6.495968952     0.266634708  0.000000000  0.000000000
    -0.000000000 31.337301284 -4.330645995     0.000000000  0.031910853  0.000000000
     0.000000000  0.000000000 17.322583980     0.099988015  0.007977713  0.057728108

  length of vectors
     7.500898870 31.635122040 17.322583980     0.266634708  0.031910853  0.115731506


 
 k-points in units of 2pi/SCALE and weight: k-point density of [50, 50, 50]/[a, b, c
   0.00000000  0.00000000  0.00000000       0.024
   0.03809067  0.00000000  0.00000000       0.048
   0.07618135  0.00000000  0.00000000       0.048
   0.11427202  0.00000000  0.00000000       0.048
   0.00000000  0.01595543  0.00000000       0.024
   0.03809067  0.01595543  0.00000000       0.048
   0.07618135  0.01595543  0.00000000       0.048
   0.11427202  0.01595543  0.00000000       0.048
   0.03332934  0.00265924  0.01924270       0.048
   0.07142001  0.00265924  0.01924270       0.048
   0.10951068  0.00265924  0.01924270       0.048
   0.14760136  0.00265924  0.01924270       0.048
  -0.08094268  0.00265924  0.01924270       0.048
  -0.04285201  0.00265924  0.01924270       0.048
  -0.00476133  0.00265924  0.01924270       0.048
   0.03332934  0.01861466  0.01924270       0.048
   0.07142001  0.01861466  0.01924270       0.048
   0.10951068  0.01861466  0.01924270       0.048
   0.14760136  0.01861466  0.01924270       0.048
  -0.08094268  0.01861466  0.01924270       0.048
  -0.04285201  0.01861466  0.01924270       0.048
  -0.00476133  0.01861466  0.01924270       0.048
 
 k-points in reciprocal lattice and weights: k-point density of [50, 50, 50]/[a, b, c
   0.00000000  0.00000000  0.00000000       0.024
   0.14285714  0.00000000  0.00000000       0.048
   0.28571429 -0.00000000  0.00000000       0.048
   0.42857143 -0.00000000  0.00000000       0.048
   0.00000000  0.50000000  0.00000000       0.024
   0.14285714  0.50000000  0.00000000       0.048
   0.28571429  0.50000000  0.00000000       0.048
   0.42857143  0.50000000  0.00000000       0.048
  -0.00000000 -0.00000000  0.33333333       0.048
   0.14285714 -0.00000000  0.33333333       0.048
   0.28571429 -0.00000000  0.33333333       0.048
   0.42857143 -0.00000000  0.33333333       0.048
  -0.42857143 -0.00000000  0.33333333       0.048
  -0.28571429 -0.00000000  0.33333333       0.048
  -0.14285714 -0.00000000  0.33333333       0.048
  -0.00000000  0.50000000  0.33333333       0.048
   0.14285714  0.50000000  0.33333333       0.048
   0.28571429  0.50000000  0.33333333       0.048
   0.42857143  0.50000000  0.33333333       0.048
  -0.42857143  0.50000000  0.33333333       0.048
  -0.28571429  0.50000000  0.33333333       0.048
  -0.14285714  0.50000000  0.33333333       0.048
 
 position of ions in fractional coordinates (direct lattice) 
   0.66666700  0.06339322  0.22418168
   0.66666700  0.26994078  0.02581857
   0.00000000  0.39672622  0.05751493
   0.00000000  0.60327378  0.10915182
   0.33333300  0.73005922  0.14084818
   0.33333300  0.93660678  0.19248507
   0.66666700  0.06339322  0.47418168
   0.66666700  0.26994078  0.27581857
   0.00000000  0.39672622  0.30751493
   0.00000000  0.60327378  0.35915182
   0.33333300  0.73005922  0.39084818
   0.33333300  0.93660678  0.44248507
   0.00000000  0.21537671  0.01217755
   0.33333300  0.11795629  0.23782245
   0.00000000  0.00000000  0.20833338
   0.33333300  0.54870971  0.09551080
   0.66666700  0.45129029  0.07115595
   0.33333300  0.33333300  0.04166662
   0.66666700  0.88204371  0.17884430
   0.00000000  0.78462329  0.15448920
   0.66666700  0.66666700  0.12500012
   0.00000000  0.21537671  0.26217755
   0.33333300  0.11795629  0.48782245
   0.00000000  0.00000000  0.45833338
   0.33333300  0.54870971  0.34551080
   0.66666700  0.45129029  0.32115595
   0.33333300  0.33333300  0.29166662
   0.66666700  0.88204371  0.42884430
   0.00000000  0.78462329  0.40448920
   0.66666700  0.66666700  0.37500012
 
 position of ions in cartesian coordinates  (Angst):
   2.50030090  1.98657251 -0.72177575
   2.50030090  8.45921548 -5.05242174
  -0.00000000 12.43232916 -0.72177361
  -0.00000000 18.90497213 -0.72177361
   1.25014857 22.87808581 -2.88709443
   1.25014857 29.35072878 -2.88709443
   2.50030090  1.98657251  3.60887025
   2.50030090  8.45921548 -0.72177575
  -0.00000000 12.43232916  3.60887238
  -0.00000000 18.90497213  3.60887238
   1.25014857 22.87808581  1.44355157
   1.25014857 29.35072878  1.44355157
  -0.00000000  6.74932495 -0.72177361
   1.25014857  3.69643169  1.44355157
   0.00000000  0.00000000  3.60887238
   1.25014857 17.19508160 -2.88709443
   2.50030090 14.14221968 -5.05242174
   1.25014857 10.44575665 -2.88709443
   2.50030090 27.64086959 -5.05242174
  -0.00000000 24.58797633 -0.72177361
   2.50030090 20.89154464 -5.05242174
  -0.00000000  6.74932495  3.60887238
   1.25014857  3.69643169  5.77419756
   0.00000000  0.00000000  7.93951838
   1.25014857 17.19508160  1.44355157
   2.50030090 14.14221968 -0.72177575
   1.25014857 10.44575665  1.44355157
   2.50030090 27.64086959 -0.72177575
  -0.00000000 24.58797633  3.60887238
   2.50030090 20.89154464 -0.72177575
 


--------------------------------------------------------------------------------------------------------


 k-point  1 :   0.0000 0.0000 0.0000  plane waves:   24059
 k-point  2 :   0.1429 0.0000 0.0000  plane waves:   24021
 k-point  3 :   0.2857-0.0000 0.0000  plane waves:   24036
 k-point  4 :   0.4286-0.0000 0.0000  plane waves:   24003
 k-point  5 :   0.0000 0.5000 0.0000  plane waves:   24046
 k-point  6 :   0.1429 0.5000 0.0000  plane waves:   24013
 k-point  7 :   0.2857 0.5000 0.0000  plane waves:   24049
 k-point  8 :   0.4286 0.5000 0.0000  plane waves:   23993
 k-point  9 :  -0.0000-0.0000 0.3333  plane waves:   24052
 k-point 10 :   0.1429-0.0000 0.3333  plane waves:   24052
 k-point 11 :   0.2857-0.0000 0.3333  plane waves:   24011
 k-point 12 :   0.4286-0.0000 0.3333  plane waves:   24003
 k-point 13 :  -0.4286-0.0000 0.3333  plane waves:   23978
 k-point 14 :  -0.2857-0.0000 0.3333  plane waves:   24044
 k-point 15 :  -0.1429-0.0000 0.3333  plane waves:   24046
 k-point 16 :  -0.0000 0.5000 0.3333  plane waves:   24060
 k-point 17 :   0.1429 0.5000 0.3333  plane waves:   24033
 k-point 18 :   0.2857 0.5000 0.3333  plane waves:   24000
 k-point 19 :   0.4286 0.5000 0.3333  plane waves:   23990
 k-point 20 :  -0.4286 0.5000 0.3333  plane waves:   23992
 k-point 21 :  -0.2857 0.5000 0.3333  plane waves:   24010
 k-point 22 :  -0.1429 0.5000 0.3333  plane waves:   24037

 maximum and minimum number of plane-waves per node :      6037     5967

 maximum number of plane-waves:     24060
 maximum index in each direction: 
   IXMAX=   11   IYMAX=   44   IZMAX=   24
   IXMIN=  -11   IYMIN=  -45   IZMIN=  -24


 parallel 3D FFT for wavefunctions:
    minimum data exchange during FFTs selected (reduces bandwidth)
 parallel 3D FFT for charge:
    minimum data exchange during FFTs selected (reduces bandwidth)


 total amount of memory used by VASP MPI-rank0    82251. kBytes
=======================================================================

   base      :      30000. kBytes
   nonl-proj :      30416. kBytes
   fftplans  :       7836. kBytes
   grid      :      11773. kBytes
   one-center:         64. kBytes
   wavefun   :       2162. kBytes
 
     INWAV:  cpu time    0.0000: real time    0.0002
 Broyden mixing: mesh for mixing (old mesh)
   NGX = 21   NGY = 89   NGZ = 49
  (NGX  = 84   NGY  =360   NGZ  =196)
  gives a total of  91581 points

 initial charge density was supplied:
 charge density of overlapping atoms calculated
 number of electron     168.0000000 magnetization 
 keeping initial charge density in first step


--------------------------------------------------------------------------------------------------------


 Maximum index for augmentation-charges          580 (set IRDMAX)


--------------------------------------------------------------------------------------------------------


 First call to EWALD:  gamma=   0.140
 Maximum number of real-space cells 8x 1x 4
 Maximum number of reciprocal cells 2x 6x 4

    FEWALD:  cpu time    0.0037: real time    0.0037


--------------------------------------- Iteration      1(   1)  ---------------------------------------


    POTLOK:  cpu time    0.1122: real time    0.1245
    SETDIJ:  cpu time    0.0049: real time    0.0054
     EDDAV:  cpu time    6.4135: real time    6.4171
       DOS:  cpu time    0.0069: real time    0.0072
    --------------------------------------------
      LOOP:  cpu time    6.5375: real time    6.5543

 eigenvalue-minimisations  :  5632
 total energy-change (2. order) : 0.5567515E+03  (-0.4304228E+04)
 number of electron     168.0000000 magnetization 
 augmentation part      168.0000000 magnetization 

 Free energy of the ion-electron system (eV)
  ---------------------------------------------------
  alpha Z        PSCENC =        -5.40434045
  Ewald energy   TEWEN  =     -3293.45216476
  -Hartree energ DENC   =     -2128.21360340
  -exchange      EXHF   =         0.00000000
  -V(xc)+E(xc)   XCENC  =     -1071.51966910
  PAW double counting   =      2891.42314479    -1550.38285165
  entropy T*S    EENTRO =        -0.00043083
  eigenvalues    EBANDS =      -102.17189207
  atomic energy  EATOM  =      5816.47334678
  Solvation  Ediel_sol  =         0.00000000
  ---------------------------------------------------
  free energy    TOTEN  =       556.75153930 eV

  energy without entropy =      556.75197013  energy(sigma->0) =      556.75168291


--------------------------------------------------------------------------------------------------------




--------------------------------------- Iteration      1(   2)  ---------------------------------------


     EDDAV:  cpu time   23.8862: real time   23.8952
       DOS:  cpu time    0.0018: real time    0.0018
    --------------------------------------------
      LOOP:  cpu time   23.8880: real time   23.8970

 eigenvalue-minimisations  : 11264
 total energy-change (2. order) :-0.6388888E+03  (-0.6383631E+03)
 number of electron     168.0000000 magnetization 
 augmentation part      168.0000000 magnetization 

 Free energy of the ion-electron system (eV)
  ---------------------------------------------------
  alpha Z        PSCENC =        -5.40434045
  Ewald energy   TEWEN  =     -3293.45216476
  -Hartree energ DENC   =     -2128.21360340
  -exchange      EXHF   =         0.00000000
  -V(xc)+E(xc)   XCENC  =     -1071.51966910
  PAW double counting   =      2891.42314479    -1550.38285165
  entropy T*S    EENTRO =         0.07489607
  eigenvalues    EBANDS =      -741.13605229
  atomic energy  EATOM  =      5816.47334678
  Solvation  Ediel_sol  =         0.00000000
  ---------------------------------------------------
  free energy    TOTEN  =       -82.13729402 eV

  energy without entropy =      -82.21219009  energy(sigma->0) =      -82.16225938


--------------------------------------------------------------------------------------------------------




--------------------------------------- Iteration      1(   3)  ---------------------------------------


     EDDAV:  cpu time    9.5605: real time    9.5681
       DOS:  cpu time    0.0015: real time    0.0015
    --------------------------------------------
      LOOP:  cpu time    9.5620: real time    9.5696

 eigenvalue-minimisations  :  6784
 total energy-change (2. order) :-0.2005560E+02  (-0.2005591E+02)
 number of electron     168.0000000 magnetization 
 augmentation part      168.0000000 magnetization 

 Free energy of the ion-electron system (eV)
  ---------------------------------------------------
  alpha Z        PSCENC =        -5.40434045
  Ewald energy   TEWEN  =     -3293.45216476
  -Hartree energ DENC   =     -2128.21360340
  -exchange      EXHF   =         0.00000000
  -V(xc)+E(xc)   XCENC  =     -1071.51966910
  PAW double counting   =      2891.42314479    -1550.38285165
  entropy T*S    EENTRO =         0.08640943
  eigenvalues    EBANDS =      -761.20316870
  atomic energy  EATOM  =      5816.47334678
  Solvation  Ediel_sol  =         0.00000000
  ---------------------------------------------------
  free energy    TOTEN  =      -102.19289707 eV

  energy without entropy =     -102.27930650  energy(sigma->0) =     -102.22170021


--------------------------------------------------------------------------------------------------------




--------------------------------------- Iteration      1(   4)  ---------------------------------------


     EDDAV:  cpu time   23.3186: real time   23.3289
       DOS:  cpu time    0.0015: real time    0.0015
    --------------------------------------------
      LOOP:  cpu time   23.3201: real time   23.3304

 eigenvalue-minimisations  : 11136
 total energy-change (2. order) :-0.2386897E+00  (-0.2386854E+00)
 number of electron     168.0000000 magnetization 
 augmentation part      168.0000000 magnetization 

 Free energy of the ion-electron system (eV)
  ---------------------------------------------------
  alpha Z        PSCENC =        -5.40434045
  Ewald energy   TEWEN  =     -3293.45216476
  -Hartree energ DENC   =     -2128.21360340
  -exchange      EXHF   =         0.00000000
  -V(xc)+E(xc)   XCENC  =     -1071.51966910
  PAW double counting   =      2891.42314479    -1550.38285165
  entropy T*S    EENTRO =         0.08643560
  eigenvalues    EBANDS =      -761.44188458
  atomic energy  EATOM  =      5816.47334678
  Solvation  Ediel_sol  =         0.00000000
  ---------------------------------------------------
  free energy    TOTEN  =      -102.43158678 eV

  energy without entropy =     -102.51802238  energy(sigma->0) =     -102.46039865


--------------------------------------------------------------------------------------------------------




--------------------------------------- Iteration      1(   5)  ---------------------------------------


     EDDAV:  cpu time   11.9822: real time   11.9911
       DOS:  cpu time    0.0015: real time    0.0015
    CHARGE:  cpu time    0.1604: real time    0.1616
    MIXING:  cpu time    0.0171: real time    0.0176
    --------------------------------------------
      LOOP:  cpu time   12.1611: real time   12.1717

 eigenvalue-minimisations  :  7808
 total energy-change (2. order) :-0.1139531E-03  (-0.1139531E-03)
 number of electron     167.9999985 magnetization 
 augmentation part      -31.4562083 magnetization 

 Broyden mixing:
  rms(total) = 0.76735E+00    rms(broyden)= 0.76731E+00
  rms(prec ) = 0.86526E+00
  weight for this iteration     100.00

 Free energy of the ion-electron system (eV)
  ---------------------------------------------------
  alpha Z        PSCENC =        -5.40434045
  Ewald energy   TEWEN  =     -3293.45216476
  -Hartree energ DENC   =     -2128.21360340
  -exchange      EXHF   =         0.00000000
  -V(xc)+E(xc)   XCENC  =     -1071.51966910
  PAW double counting   =      2891.42314479    -1550.38285165
  entropy T*S    EENTRO =         0.08643562
  eigenvalues    EBANDS =      -761.44199855
  atomic energy  EATOM  =      5816.47334678
  Solvation  Ediel_sol  =         0.00000000
  ---------------------------------------------------
  free energy    TOTEN  =      -102.43170074 eV

  energy without entropy =     -102.51813635  energy(sigma->0) =     -102.46051261


--------------------------------------------------------------------------------------------------------




--------------------------------------- Iteration      1(   6)  ---------------------------------------


    POTLOK:  cpu time    0.0948: real time    0.0999
    SETDIJ:  cpu time    0.0037: real time    0.0037
    EDDIAG:  cpu time   19.8094: real time   19.8776
  RMM-DIIS:  cpu time    1.8156: real time    1.8178
    ORTHCH:  cpu time    0.1455: real time    0.1456
       DOS:  cpu time    0.0010: real time    0.0010
    CHARGE:  cpu time    0.1593: real time    0.1593
    MIXING:  cpu time    0.0045: real time    0.0051
    --------------------------------------------
      LOOP:  cpu time   22.0339: real time   22.1100

 eigenvalue-minimisations  :  5632
 total energy-change (2. order) : 0.3190201E+01  (-0.4546697E+00)
 number of electron     167.9999986 magnetization 
 augmentation part      -31.1310435 magnetization 

 Broyden mixing:
  rms(total) = 0.34627E+00    rms(broyden)= 0.34626E+00
  rms(prec ) = 0.36688E+00
  weight for this iteration     100.00

 eigenvalues of (default mixing * dielectric matrix)
  average eigenvalue GAMMA=   1.0255
  1.0255

 Free energy of the ion-electron system (eV)
  ---------------------------------------------------
  alpha Z        PSCENC =        -5.40434045
  Ewald energy   TEWEN  =     -3293.45216476
  -Hartree energ DENC   =     -2147.19949042
  -exchange      EXHF   =         0.00000000
  -V(xc)+E(xc)   XCENC  =     -1069.95859249
  PAW double counting   =      2941.55777684    -1601.07064375
  entropy T*S    EENTRO =         0.10905983
  eigenvalues    EBANDS =      -740.29645175
  atomic energy  EATOM  =      5816.47334678
  Solvation  Ediel_sol  =         0.00000000
  ---------------------------------------------------
  free energy    TOTEN  =       -99.24150017 eV

  energy without entropy =      -99.35056000  energy(sigma->0) =      -99.27785345


--------------------------------------------------------------------------------------------------------




--------------------------------------- Iteration      1(   7)  ---------------------------------------


    POTLOK:  cpu time    0.0950: real time    0.0999
    SETDIJ:  cpu time    0.0035: real time    0.0035
    EDDIAG:  cpu time    1.0995: real time    1.0998
  RMM-DIIS:  cpu time    1.8175: real time    1.8181
    ORTHCH:  cpu time    0.1349: real time    0.1351
       DOS:  cpu time    0.0009: real time    0.0009
    CHARGE:  cpu time    0.1592: real time    0.1592
    MIXING:  cpu time    0.0028: real time    0.0028
    --------------------------------------------
      LOOP:  cpu time    3.3133: real time    3.3193

 eigenvalue-minimisations  :  5632
 total energy-change (2. order) : 0.1819349E+00  (-0.2013117E-01)
 number of electron     167.9999986 magnetization 
 augmentation part      -31.1474644 magnetization 

 Broyden mixing:
  rms(total) = 0.21019E+00    rms(broyden)= 0.21019E+00
  rms(prec ) = 0.22377E+00
  weight for this iteration     100.00

 eigenvalues of (default mixing * dielectric matrix)
  average eigenvalue GAMMA=   1.7047
  0.9372  2.4723

 Free energy of the ion-electron system (eV)
  ---------------------------------------------------
  alpha Z        PSCENC =        -5.40434045
  Ewald energy   TEWEN  =     -3293.45216476
  -Hartree energ DENC   =     -2154.20330433
  -exchange      EXHF   =         0.00000000
  -V(xc)+E(xc)   XCENC  =     -1069.51099675
  PAW double counting   =      2942.29440411    -1601.79674127
  entropy T*S    EENTRO =         0.10026881
  eigenvalues    EBANDS =      -733.56003738
  atomic energy  EATOM  =      5816.47334678
  Solvation  Ediel_sol  =         0.00000000
  ---------------------------------------------------
  free energy    TOTEN  =       -99.05956524 eV

  energy without entropy =      -99.15983405  energy(sigma->0) =      -99.09298818


--------------------------------------------------------------------------------------------------------




--------------------------------------- Iteration      1(   8)  ---------------------------------------


    POTLOK:  cpu time    0.1011: real time    0.1053
    SETDIJ:  cpu time    0.0035: real time    0.0035
    EDDIAG:  cpu time    1.1060: real time    1.1063
  RMM-DIIS:  cpu time    1.8353: real time    1.8365
    ORTHCH:  cpu time    0.1345: real time    0.1345
       DOS:  cpu time    0.0009: real time    0.0009
    CHARGE:  cpu time    0.1601: real time    0.1608
    MIXING:  cpu time    0.0029: real time    0.0029
    --------------------------------------------
      LOOP:  cpu time    3.3444: real time    3.3507

 eigenvalue-minimisations  :  5632
 total energy-change (2. order) : 0.1049913E+00  (-0.3251353E-01)
 number of electron     167.9999986 magnetization 
 augmentation part      -31.1691683 magnetization 

 Broyden mixing:
  rms(total) = 0.42742E-01    rms(broyden)= 0.42741E-01
  rms(prec ) = 0.50429E-01
  weight for this iteration     100.00

 eigenvalues of (default mixing * dielectric matrix)
  average eigenvalue GAMMA=   1.4393
  2.5393  0.8892  0.8892

 Free energy of the ion-electron system (eV)
  ---------------------------------------------------
  alpha Z        PSCENC =        -5.40434045
  Ewald energy   TEWEN  =     -3293.45216476
  -Hartree energ DENC   =     -2167.88474567
  -exchange      EXHF   =         0.00000000
  -V(xc)+E(xc)   XCENC  =     -1068.50575831
  PAW double counting   =      2946.03939796    -1605.54646917
  entropy T*S    EENTRO =         0.12928386
  eigenvalues    EBANDS =      -720.80312421
  atomic energy  EATOM  =      5816.47334678
  Solvation  Ediel_sol  =         0.00000000
  ---------------------------------------------------
  free energy    TOTEN  =       -98.95457397 eV

  energy without entropy =      -99.08385783  energy(sigma->0) =      -98.99766859


--------------------------------------------------------------------------------------------------------




--------------------------------------- Iteration      1(   9)  ---------------------------------------


    POTLOK:  cpu time    0.0962: real time    0.1009
    SETDIJ:  cpu time    0.0034: real time    0.0034
    EDDIAG:  cpu time    1.0969: real time    1.0989
  RMM-DIIS:  cpu time    1.8057: real time    1.8118
    ORTHCH:  cpu time    0.1348: real time    0.1352
       DOS:  cpu time    0.0013: real time    0.0013
    CHARGE:  cpu time    0.1594: real time    0.1594
    MIXING:  cpu time    0.0027: real time    0.0029
    --------------------------------------------
      LOOP:  cpu time    3.3005: real time    3.3138

 eigenvalue-minimisations  :  5634
 total energy-change (2. order) : 0.1694550E-01  (-0.2035939E-02)
 number of electron     167.9999986 magnetization 
 augmentation part      -31.1600985 magnetization 

 Broyden mixing:
  rms(total) = 0.29072E-01    rms(broyden)= 0.29072E-01
  rms(prec ) = 0.36327E-01
  weight for this iteration     100.00

 eigenvalues of (default mixing * dielectric matrix)
  average eigenvalue GAMMA=   1.4395
  2.4186  0.8720  0.8720  1.5953

 Free energy of the ion-electron system (eV)
  ---------------------------------------------------
  alpha Z        PSCENC =        -5.40434045
  Ewald energy   TEWEN  =     -3293.45216476
  -Hartree energ DENC   =     -2170.60775032
  -exchange      EXHF   =         0.00000000
  -V(xc)+E(xc)   XCENC  =     -1068.33852136
  PAW double counting   =      2945.83638082    -1605.34308543
  entropy T*S    EENTRO =         0.11632002
  eigenvalues    EBANDS =      -718.21781377
  atomic energy  EATOM  =      5816.47334678
  Solvation  Ediel_sol  =         0.00000000
  ---------------------------------------------------
  free energy    TOTEN  =       -98.93762848 eV

  energy without entropy =      -99.05394850  energy(sigma->0) =      -98.97640182


--------------------------------------------------------------------------------------------------------




--------------------------------------- Iteration      1(  10)  ---------------------------------------


    POTLOK:  cpu time    0.0967: real time    0.1006
    SETDIJ:  cpu time    0.0033: real time    0.0033
    EDDIAG:  cpu time    1.1026: real time    1.1045
  RMM-DIIS:  cpu time    1.8628: real time    1.8685
    ORTHCH:  cpu time    0.1346: real time    0.1352
       DOS:  cpu time    0.0009: real time    0.0009
    CHARGE:  cpu time    0.1590: real time    0.1595
    MIXING:  cpu time    0.0029: real time    0.0029
    --------------------------------------------
      LOOP:  cpu time    3.3630: real time    3.3756

 eigenvalue-minimisations  :  5650
 total energy-change (2. order) :-0.5972889E-02  (-0.7486755E-03)
 number of electron     167.9999986 magnetization 
 augmentation part      -31.1562003 magnetization 

 Broyden mixing:
  rms(total) = 0.23843E-01    rms(broyden)= 0.23843E-01
  rms(prec ) = 0.39600E-01
  weight for this iteration     100.00

 eigenvalues of (default mixing * dielectric matrix)
  average eigenvalue GAMMA=   1.3017
  2.4129  1.8523  0.8291  0.7070  0.7070

 Free energy of the ion-electron system (eV)
  ---------------------------------------------------
  alpha Z        PSCENC =        -5.40434045
  Ewald energy   TEWEN  =     -3293.45216476
  -Hartree energ DENC   =     -2172.20839808
  -exchange      EXHF   =         0.00000000
  -V(xc)+E(xc)   XCENC  =     -1068.26114026
  PAW double counting   =      2944.09123296    -1603.58424272
  entropy T*S    EENTRO =         0.11909939
  eigenvalues    EBANDS =      -716.71699423
  atomic energy  EATOM  =      5816.47334678
  Solvation  Ediel_sol  =         0.00000000
  ---------------------------------------------------
  free energy    TOTEN  =       -98.94360137 eV

  energy without entropy =      -99.06270076  energy(sigma->0) =      -98.98330116


--------------------------------------------------------------------------------------------------------




--------------------------------------- Iteration      1(  11)  ---------------------------------------


    POTLOK:  cpu time    0.0992: real time    0.1035
    SETDIJ:  cpu time    0.0035: real time    0.0035
    EDDIAG:  cpu time    1.0848: real time    1.0871
  RMM-DIIS:  cpu time    1.8093: real time    1.8156
    ORTHCH:  cpu time    0.1395: real time    0.1395
       DOS:  cpu time    0.0010: real time    0.0010
    CHARGE:  cpu time    0.1599: real time    0.1604
    MIXING:  cpu time    0.0028: real time    0.0029
    --------------------------------------------
      LOOP:  cpu time    3.3001: real time    3.3135

 eigenvalue-minimisations  :  5632
 total energy-change (2. order) : 0.2761865E-02  (-0.2689362E-03)
 number of electron     167.9999986 magnetization 
 augmentation part      -31.1535915 magnetization 

 Broyden mixing:
  rms(total) = 0.12822E-01    rms(broyden)= 0.12822E-01
  rms(prec ) = 0.16283E-01
  weight for this iteration     100.00

 eigenvalues of (default mixing * dielectric matrix)
  average eigenvalue GAMMA=   1.3551
  2.6267  2.6267  0.8826  0.7912  0.7912  0.4122

 Free energy of the ion-electron system (eV)
  ---------------------------------------------------
  alpha Z        PSCENC =        -5.40434045
  Ewald energy   TEWEN  =     -3293.45216476
  -Hartree energ DENC   =     -2173.42025425
  -exchange      EXHF   =         0.00000000
  -V(xc)+E(xc)   XCENC  =     -1068.19775514
  PAW double counting   =      2942.99472885    -1602.47829680
  entropy T*S    EENTRO =         0.11442755
  eigenvalues    EBANDS =      -715.57053127
  atomic energy  EATOM  =      5816.47334678
  Solvation  Ediel_sol  =         0.00000000
  ---------------------------------------------------
  free energy    TOTEN  =       -98.94083950 eV

  energy without entropy =      -99.05526705  energy(sigma->0) =      -98.97898202


--------------------------------------------------------------------------------------------------------




--------------------------------------- Iteration      1(  12)  ---------------------------------------


    POTLOK:  cpu time    0.0964: real time    0.1003
    SETDIJ:  cpu time    0.0033: real time    0.0034
    EDDIAG:  cpu time    1.0898: real time    1.0926
  RMM-DIIS:  cpu time    1.8101: real time    1.8155
    ORTHCH:  cpu time    0.1920: real time    0.1922
       DOS:  cpu time    0.0010: real time    0.0010
    CHARGE:  cpu time    0.1589: real time    0.1596
    MIXING:  cpu time    0.0031: real time    0.0031
    --------------------------------------------
      LOOP:  cpu time    3.3547: real time    3.3676

 eigenvalue-minimisations  :  5632
 total energy-change (2. order) :-0.1394193E-02  (-0.3240272E-03)
 number of electron     167.9999986 magnetization 
 augmentation part      -31.1500052 magnetization 

 Broyden mixing:
  rms(total) = 0.71101E-02    rms(broyden)= 0.71101E-02
  rms(prec ) = 0.10107E-01
  weight for this iteration     100.00

 eigenvalues of (default mixing * dielectric matrix)
  average eigenvalue GAMMA=   1.3888
  3.0155  2.4079  1.1971  1.0129  0.8446  0.8446  0.3991

 Free energy of the ion-electron system (eV)
  ---------------------------------------------------
  alpha Z        PSCENC =        -5.40434045
  Ewald energy   TEWEN  =     -3293.45216476
  -Hartree energ DENC   =     -2175.52528731
  -exchange      EXHF   =         0.00000000
  -V(xc)+E(xc)   XCENC  =     -1068.08647785
  PAW double counting   =      2941.12608903    -1600.59151551
  entropy T*S    EENTRO =         0.11506037
  eigenvalues    EBANDS =      -713.59694399
  atomic energy  EATOM  =      5816.47334678
  Solvation  Ediel_sol  =         0.00000000
  ---------------------------------------------------
  free energy    TOTEN  =       -98.94223370 eV

  energy without entropy =      -99.05729406  energy(sigma->0) =      -98.98058715


--------------------------------------------------------------------------------------------------------




--------------------------------------- Iteration      1(  13)  ---------------------------------------


    POTLOK:  cpu time    0.0969: real time    0.1020
    SETDIJ:  cpu time    0.0033: real time    0.0034
    EDDIAG:  cpu time    1.0911: real time    1.0932
  RMM-DIIS:  cpu time    1.8085: real time    1.8143
    ORTHCH:  cpu time    0.1347: real time    0.1352
       DOS:  cpu time    0.0010: real time    0.0010
    CHARGE:  cpu time    0.1612: real time    0.1615
    MIXING:  cpu time    0.0030: real time    0.0030
    --------------------------------------------
      LOOP:  cpu time    3.2996: real time    3.3135

 eigenvalue-minimisations  :  5632
 total energy-change (2. order) :-0.8200242E-04  (-0.1260365E-03)
 number of electron     167.9999986 magnetization 
 augmentation part      -31.1492481 magnetization 

 Broyden mixing:
  rms(total) = 0.35981E-02    rms(broyden)= 0.35981E-02
  rms(prec ) = 0.44400E-02
  weight for this iteration     100.00

 eigenvalues of (default mixing * dielectric matrix)
  average eigenvalue GAMMA=   1.4914
  3.5452  2.5760  1.7728  0.9850  0.9850  0.8324  0.8324  0.4020

 Free energy of the ion-electron system (eV)
  ---------------------------------------------------
  alpha Z        PSCENC =        -5.40434045
  Ewald energy   TEWEN  =     -3293.45216476
  -Hartree energ DENC   =     -2176.44554939
  -exchange      EXHF   =         0.00000000
  -V(xc)+E(xc)   XCENC  =     -1068.04053287
  PAW double counting   =      2940.47504465    -1599.93081547
  entropy T*S    EENTRO =         0.11489479
  eigenvalues    EBANDS =      -712.73219897
  atomic energy  EATOM  =      5816.47334678
  Solvation  Ediel_sol  =         0.00000000
  ---------------------------------------------------
  free energy    TOTEN  =       -98.94231570 eV

  energy without entropy =      -99.05721049  energy(sigma->0) =      -98.98061396


--------------------------------------------------------------------------------------------------------




--------------------------------------- Iteration      1(  14)  ---------------------------------------


    POTLOK:  cpu time    0.0954: real time    0.1001
    SETDIJ:  cpu time    0.0033: real time    0.0033
    EDDIAG:  cpu time    1.1424: real time    1.1444
  RMM-DIIS:  cpu time    1.8067: real time    1.8122
    ORTHCH:  cpu time    0.1371: real time    0.1374
       DOS:  cpu time    0.0010: real time    0.0010
    CHARGE:  cpu time    0.1627: real time    0.1627
    MIXING:  cpu time    0.0030: real time    0.0030
    --------------------------------------------
      LOOP:  cpu time    3.3517: real time    3.3643

 eigenvalue-minimisations  :  5632
 total energy-change (2. order) :-0.2479054E-04  (-0.4543241E-04)
 number of electron     167.9999986 magnetization 
 augmentation part      -31.1476392 magnetization 

 Broyden mixing:
  rms(total) = 0.17655E-02    rms(broyden)= 0.17655E-02
  rms(prec ) = 0.24635E-02
  weight for this iteration     100.00

 eigenvalues of (default mixing * dielectric matrix)
  average eigenvalue GAMMA=   1.5471
  4.2324  2.7283  2.0207  1.1309  0.8299  0.8299  0.9079  0.8421  0.4021

 Free energy of the ion-electron system (eV)
  ---------------------------------------------------
  alpha Z        PSCENC =        -5.40434045
  Ewald energy   TEWEN  =     -3293.45216476
  -Hartree energ DENC   =     -2177.07816939
  -exchange      EXHF   =         0.00000000
  -V(xc)+E(xc)   XCENC  =     -1068.01019540
  PAW double counting   =      2940.01004109    -1599.45850963
  entropy T*S    EENTRO =         0.11547836
  eigenvalues    EBANDS =      -712.13782708
  atomic energy  EATOM  =      5816.47334678
  Solvation  Ediel_sol  =         0.00000000
  ---------------------------------------------------
  free energy    TOTEN  =       -98.94234049 eV

  energy without entropy =      -99.05781885  energy(sigma->0) =      -98.98083328


--------------------------------------------------------------------------------------------------------




--------------------------------------- Iteration      1(  15)  ---------------------------------------


    POTLOK:  cpu time    0.0994: real time    0.1002
    SETDIJ:  cpu time    0.0034: real time    0.0034
    EDDIAG:  cpu time    1.0840: real time    1.0865
  RMM-DIIS:  cpu time    1.8034: real time    1.8095
    ORTHCH:  cpu time    0.1391: real time    0.1392
       DOS:  cpu time    0.0010: real time    0.0010
    CHARGE:  cpu time    0.1605: real time    0.1608
    MIXING:  cpu time    0.0031: real time    0.0031
    --------------------------------------------
      LOOP:  cpu time    3.2940: real time    3.3037

 eigenvalue-minimisations  :  5632
 total energy-change (2. order) : 0.2360670E-04  (-0.1048251E-04)
 number of electron     167.9999986 magnetization 
 augmentation part      -31.1470660 magnetization 

 Broyden mixing:
  rms(total) = 0.10765E-02    rms(broyden)= 0.10765E-02
  rms(prec ) = 0.18010E-02
  weight for this iteration     100.00

 eigenvalues of (default mixing * dielectric matrix)
  average eigenvalue GAMMA=   1.4671
  4.2840  2.7488  2.0561  1.2277  0.9075  0.9075  0.8161  0.8161  0.4022  0.5050

 Free energy of the ion-electron system (eV)
  ---------------------------------------------------
  alpha Z        PSCENC =        -5.40434045
  Ewald energy   TEWEN  =     -3293.45216476
  -Hartree energ DENC   =     -2177.33236028
  -exchange      EXHF   =         0.00000000
  -V(xc)+E(xc)   XCENC  =     -1067.99790939
  PAW double counting   =      2939.80429364    -1599.24916821
  entropy T*S    EENTRO =         0.11560198
  eigenvalues    EBANDS =      -711.89961619
  atomic energy  EATOM  =      5816.47334678
  Solvation  Ediel_sol  =         0.00000000
  ---------------------------------------------------
  free energy    TOTEN  =       -98.94231688 eV

  energy without entropy =      -99.05791886  energy(sigma->0) =      -98.98085088


--------------------------------------------------------------------------------------------------------




--------------------------------------- Iteration      1(  16)  ---------------------------------------


    POTLOK:  cpu time    0.0951: real time    0.0990
    SETDIJ:  cpu time    0.0033: real time    0.0033
    EDDIAG:  cpu time    1.0948: real time    1.0970
  RMM-DIIS:  cpu time    1.8814: real time    1.8850
    ORTHCH:  cpu time    0.1361: real time    0.1364
       DOS:  cpu time    0.0011: real time    0.0011
    CHARGE:  cpu time    0.1610: real time    0.1612
    MIXING:  cpu time    0.0031: real time    0.0031
    --------------------------------------------
      LOOP:  cpu time    3.3760: real time    3.3863

 eigenvalue-minimisations  :  5020
 total energy-change (2. order) : 0.7608234E-05  (-0.1025919E-05)
 number of electron     167.9999986 magnetization 
 augmentation part      -31.1470224 magnetization 

 Broyden mixing:
  rms(total) = 0.63160E-03    rms(broyden)= 0.63159E-03
  rms(prec ) = 0.78153E-03
  weight for this iteration     100.00

 eigenvalues of (default mixing * dielectric matrix)
  average eigenvalue GAMMA=   1.5336
  4.3134  2.9780  2.4765  1.8654  0.9937  0.9937  0.8430  0.8430  0.7975  0.4021
  0.3637

 Free energy of the ion-electron system (eV)
  ---------------------------------------------------
  alpha Z        PSCENC =        -5.40434045
  Ewald energy   TEWEN  =     -3293.45216476
  -Hartree energ DENC   =     -2177.36264955
  -exchange      EXHF   =         0.00000000
  -V(xc)+E(xc)   XCENC  =     -1067.99634597
  PAW double counting   =      2939.78446537    -1599.22879462
  entropy T*S    EENTRO =         0.11559708
  eigenvalues    EBANDS =      -711.87142315
  atomic energy  EATOM  =      5816.47334678
  Solvation  Ediel_sol  =         0.00000000
  ---------------------------------------------------
  free energy    TOTEN  =       -98.94230927 eV

  energy without entropy =      -99.05790635  energy(sigma->0) =      -98.98084163


--------------------------------------------------------------------------------------------------------




--------------------------------------- Iteration      1(  17)  ---------------------------------------


    POTLOK:  cpu time    0.0964: real time    0.1008
    SETDIJ:  cpu time    0.0034: real time    0.0034
    EDDIAG:  cpu time    1.0909: real time    1.0940
  RMM-DIIS:  cpu time    1.7667: real time    1.7708
    ORTHCH:  cpu time    0.1396: real time    0.1397
       DOS:  cpu time    0.0010: real time    0.0010
    CHARGE:  cpu time    0.1603: real time    0.1608
    MIXING:  cpu time    0.0032: real time    0.0032
    --------------------------------------------
      LOOP:  cpu time    3.2614: real time    3.2736

 eigenvalue-minimisations  :  5216
 total energy-change (2. order) :-0.6166323E-05  (-0.9600815E-06)
 number of electron     167.9999986 magnetization 
 augmentation part      -31.1472617 magnetization 

 Broyden mixing:
  rms(total) = 0.20264E-03    rms(broyden)= 0.20264E-03
  rms(prec ) = 0.25564E-03
  weight for this iteration     100.00

 eigenvalues of (default mixing * dielectric matrix)
  average eigenvalue GAMMA=   1.5321
  4.5599  3.1095  2.5335  1.8022  1.2597  0.9433  0.9433  0.8448  0.8448  0.7817
  0.4021  0.3607

 Free energy of the ion-electron system (eV)
  ---------------------------------------------------
  alpha Z        PSCENC =        -5.40434045
  Ewald energy   TEWEN  =     -3293.45216476
  -Hartree energ DENC   =     -2177.36238394
  -exchange      EXHF   =         0.00000000
  -V(xc)+E(xc)   XCENC  =     -1067.99604395
  PAW double counting   =      2939.80650001    -1599.25044682
  entropy T*S    EENTRO =         0.11559645
  eigenvalues    EBANDS =      -711.87237876
  atomic energy  EATOM  =      5816.47334678
  Solvation  Ediel_sol  =         0.00000000
  ---------------------------------------------------
  free energy    TOTEN  =       -98.94231544 eV

  energy without entropy =      -99.05791189  energy(sigma->0) =      -98.98084759


--------------------------------------------------------------------------------------------------------




--------------------------------------- Iteration      1(  18)  ---------------------------------------


    POTLOK:  cpu time    0.0958: real time    0.1009
    SETDIJ:  cpu time    0.0038: real time    0.0038
    EDDIAG:  cpu time    1.0941: real time    1.0964
  RMM-DIIS:  cpu time    1.7228: real time    1.7258
    ORTHCH:  cpu time    0.1407: real time    0.1410
       DOS:  cpu time    0.0009: real time    0.0009
    --------------------------------------------
      LOOP:  cpu time    3.0581: real time    3.0688

 eigenvalue-minimisations  :  3821
 total energy-change (2. order) :-0.4773010E-06  (-0.1228995E-06)
 number of electron     167.9999986 magnetization 
 augmentation part      -31.1472617 magnetization 

 Free energy of the ion-electron system (eV)
  ---------------------------------------------------
  alpha Z        PSCENC =        -5.40434045
  Ewald energy   TEWEN  =     -3293.45216476
  -Hartree energ DENC   =     -2177.37526889
  -exchange      EXHF   =         0.00000000
  -V(xc)+E(xc)   XCENC  =     -1067.99567533
  PAW double counting   =      2939.81159928    -1599.25556118
  entropy T*S    EENTRO =         0.11563086
  eigenvalues    EBANDS =      -711.85988223
  atomic energy  EATOM  =      5816.47334678
  Solvation  Ediel_sol  =         0.00000000
  ---------------------------------------------------
  free energy    TOTEN  =       -98.94231592 eV

  energy without entropy =      -99.05794678  energy(sigma->0) =      -98.98085954


--------------------------------------------------------------------------------------------------------




 average (electrostatic) potential at core
  the test charge radii are     1.1712  1.1897
  (the norm of the test charge is              1.0000)
       1 -92.9473       2 -92.8486       3 -92.9557       4 -92.9394       5 -92.9396
       6 -92.9661       7 -92.8486       8 -92.9473       9 -92.9661      10 -92.9396
      11 -92.9394      12 -92.9557      13 -93.3745      14 -93.3643      15 -93.9405
      16 -93.4412      17 -93.4541      18 -93.9651      19 -93.4447      20 -93.4400
      21 -93.9515      22 -93.3643      23 -93.3745      24 -93.9651      25 -93.4401
      26 -93.4447      27 -93.9405      28 -93.4541      29 -93.4411      30 -93.9515
 
 
 
 E-fermi :   0.7508     XC(G=0):  -5.7795     alpha+bet : -5.2823


 k-point     1 :       0.0000    0.0000    0.0000
  band No.  band energies     occupation 
      1     -11.2202      2.00000
      2     -11.1885      2.00000
      3     -11.1852      2.00000
      4     -10.5736      2.00000
      5     -10.5336      2.00000
      6     -10.3988      2.00000
      7     -10.1095      2.00000
      8     -10.1089      2.00000
      9     -10.1086      2.00000
     10     -10.0254      2.00000
     11      -9.8625      2.00000
     12      -9.8600      2.00000
     13      -9.5645      2.00000
     14      -9.5643      2.00000
     15      -9.5584      2.00000
     16      -9.5499      2.00000
     17      -9.5244      2.00000
     18      -9.4341      2.00000
     19      -8.5666      2.00000
     20      -8.5608      2.00000
     21      -8.5585      2.00000
     22      -8.4819      2.00000
     23      -8.4626      2.00000
     24      -8.4582      2.00000
     25      -7.7815      2.00000
     26      -7.7502      2.00000
     27      -7.6091      2.00000
     28      -7.1019      2.00000
     29      -6.9840      2.00000
     30      -6.9790      2.00000
     31      -3.7493      2.00000
     32      -3.6424      2.00000
     33      -3.6151      2.00000
     34      -2.6601      2.00000
     35      -2.6571      2.00000
     36      -2.6305      2.00000
     37      -2.6004      2.00000
     38      -2.5623      2.00000
     39      -2.5443      2.00000
     40      -2.5019      2.00000
     41      -2.4011      2.00000
     42      -2.3359      2.00000
     43      -2.3247      2.00000
     44      -2.3246      2.00000
     45      -2.2733      2.00000
     46      -2.2582      2.00000
     47      -2.2574      2.00000
     48      -2.1220      2.00000
     49      -2.0999      2.00000
     50      -2.0929      2.00000
     51      -2.0801      2.00000
     52      -2.0295      2.00000
     53      -2.0157      2.00000
     54      -1.8938      2.00000
     55      -1.8598      2.00000
     56      -1.8335      2.00000
     57      -1.7361      2.00000
     58      -1.6019      2.00000
     59      -1.5311      2.00000
     60      -1.4681      2.00000
     61      -1.3557      2.00000
     62      -1.2962      2.00000
     63      -0.9928      2.00000
     64      -0.9925      2.00000
     65      -0.9562      2.00000
     66      -0.9145      2.00000
     67      -0.7387      2.00000
     68      -0.7023      2.00000
     69      -0.5912      2.00000
     70      -0.5026      2.00000
     71      -0.4767      2.00000
     72      -0.4661      2.00000
     73      -0.3370      2.00000
     74      -0.2503      2.00000
     75      -0.1834      2.00000
     76       0.0311      2.00000
     77       0.0673      2.00001
     78       0.1060      2.00005
     79       0.1828      2.00044
     80       0.2324      2.00152
     81       0.2658      2.00322
     82       0.3198      2.00939
     83       0.3497      2.01570
     84       0.4795      2.06648
     85       0.8672      0.17668
     86       0.9265     -0.01486
     87       0.9633     -0.06093
     88       0.9977     -0.07089
     89       1.1383     -0.01947
     90       1.1972     -0.00704
     91       1.3740     -0.00010
     92       1.4594     -0.00001
     93       1.5728     -0.00000
     94       1.6244     -0.00000
     95       1.6510     -0.00000
     96       1.6751     -0.00000
     97       1.8102     -0.00000
     98       1.9180     -0.00000
     99       1.9809     -0.00000
    100       2.0478     -0.00000
    101       2.0550     -0.00000
    102       2.0869     -0.00000
    103       2.2751     -0.00000
    104       2.3372     -0.00000
    105       2.3571     -0.00000
    106       2.3853     -0.00000
    107       2.4213     -0.00000
    108       2.4386     -0.00000
    109       2.4469     -0.00000
    110       2.4812     -0.00000
    111       2.5039     -0.00000
    112       2.5241     -0.00000
    113       2.7223     -0.00000
    114       3.0642     -0.00000
    115       3.1954     -0.00000
    116       3.2087     -0.00000
    117       3.4206     -0.00000
    118       4.0972     -0.00000
    119       4.1815     -0.00000
    120       4.4481     -0.00000
    121       4.5064     -0.00000
    122       4.6311     -0.00000
    123       4.7807     -0.00000
    124       5.1593     -0.00000
    125       5.2017     -0.00000
    126       5.3793     -0.00000
    127       5.3864     -0.00000
    128       5.4940     -0.00000

 k-point     2 :       0.1429    0.0000    0.0000
  band No.  band energies     occupation 
      1     -11.1812      2.00000
      2     -11.1547      2.00000
      3     -11.1442      2.00000
      4     -10.5472      2.00000
      5     -10.4879      2.00000
      6     -10.3736      2.00000
      7     -10.1914      2.00000
      8     -10.1891      2.00000
      9     -10.1872      2.00000
     10     -10.0024      2.00000
     11      -9.8789      2.00000
     12      -9.8273      2.00000
     13      -9.6752      2.00000
     14      -9.6632      2.00000
     15      -9.6032      2.00000
     16      -9.5928      2.00000
     17      -9.5758      2.00000
     18      -9.4962      2.00000
     19      -8.4421      2.00000
     20      -8.4408      2.00000
     21      -8.4399      2.00000
     22      -8.3994      2.00000
     23      -8.3773      2.00000
     24      -8.3649      2.00000
     25      -7.8246      2.00000
     26      -7.7316      2.00000
     27      -7.6628      2.00000
     28      -7.1266      2.00000
     29      -7.0863      2.00000
     30      -7.0089      2.00000
     31      -3.6632      2.00000
     32      -3.6162      2.00000
     33      -3.5127      2.00000
     34      -2.8639      2.00000
     35      -2.8410      2.00000
     36      -2.7722      2.00000
     37      -2.5948      2.00000
     38      -2.5747      2.00000
     39      -2.5350      2.00000
     40      -2.5198      2.00000
     41      -2.3901      2.00000
     42      -2.3631      2.00000
     43      -2.3149      2.00000
     44      -2.2617      2.00000
     45      -2.2315      2.00000
     46      -2.2162      2.00000
     47      -2.1855      2.00000
     48      -2.1648      2.00000
     49      -2.0835      2.00000
     50      -2.0417      2.00000
     51      -1.9667      2.00000
     52      -1.9412      2.00000
     53      -1.9088      2.00000
     54      -1.8960      2.00000
     55      -1.8783      2.00000
     56      -1.8033      2.00000
     57      -1.7306      2.00000
     58      -1.5661      2.00000
     59      -1.5062      2.00000
     60      -1.4201      2.00000
     61      -1.3122      2.00000
     62      -1.2854      2.00000
     63      -1.0967      2.00000
     64      -1.0167      2.00000
     65      -0.9910      2.00000
     66      -0.9094      2.00000
     67      -0.7675      2.00000
     68      -0.6811      2.00000
     69      -0.6153      2.00000
     70      -0.5779      2.00000
     71      -0.5304      2.00000
     72      -0.3978      2.00000
     73      -0.2726      2.00000
     74      -0.2421      2.00000
     75      -0.0899      2.00000
     76      -0.0337      2.00000
     77      -0.0158      2.00000
     78       0.1155      2.00007
     79       0.1280      2.00010
     80       0.1804      2.00042
     81       0.2836      2.00467
     82       0.3174      2.00898
     83       0.3576      2.01781
     84       0.4598      2.05921
     85       0.8936      0.07072
     86       0.9239     -0.00979
     87       0.9529     -0.05230
     88       1.0082     -0.06982
     89       1.0958     -0.03494
     90       1.1324     -0.02129
     91       1.4261     -0.00002
     92       1.4455     -0.00001
     93       1.5245     -0.00000
     94       1.5565     -0.00000
     95       1.5795     -0.00000
     96       1.6595     -0.00000
     97       1.8385     -0.00000
     98       2.0128     -0.00000
     99       2.0730     -0.00000
    100       2.1109     -0.00000
    101       2.1418     -0.00000
    102       2.1635     -0.00000
    103       2.2058     -0.00000
    104       2.2395     -0.00000
    105       2.2626     -0.00000
    106       2.2925     -0.00000
    107       2.3847     -0.00000
    108       2.4516     -0.00000
    109       2.5382     -0.00000
    110       2.5630     -0.00000
    111       2.6735     -0.00000
    112       2.6962     -0.00000
    113       2.7955     -0.00000
    114       2.8954     -0.00000
    115       3.2397     -0.00000
    116       3.2965     -0.00000
    117       3.4935     -0.00000
    118       4.2053     -0.00000
    119       4.3575     -0.00000
    120       4.4158     -0.00000
    121       4.4953     -0.00000
    122       4.6036     -0.00000
    123       4.7634     -0.00000
    124       4.9443     -0.00000
    125       5.0636     -0.00000
    126       5.2612     -0.00000
    127       5.3065     -0.00000
    128       5.3812     -0.00000

 k-point     3 :       0.2857   -0.0000    0.0000
  band No.  band energies     occupation 
      1     -11.0678      2.00000
      2     -11.0491      2.00000
      3     -11.0311      2.00000
      4     -10.4591      2.00000
      5     -10.4024      2.00000
      6     -10.3962      2.00000
      7     -10.3885      2.00000
      8     -10.3665      2.00000
      9     -10.2986      2.00000
     10      -9.9397      2.00000
     11      -9.8777      2.00000
     12      -9.8727      2.00000
     13      -9.8349      2.00000
     14      -9.7875      2.00000
     15      -9.7507      2.00000
     16      -9.7149      2.00000
     17      -9.6497      2.00000
     18      -9.6038      2.00000
     19      -8.2771      2.00000
     20      -8.2548      2.00000
     21      -8.2498      2.00000
     22      -8.1156      2.00000
     23      -8.1002      2.00000
     24      -8.0893      2.00000
     25      -7.8892      2.00000
     26      -7.7922      2.00000
     27      -7.7567      2.00000
     28      -7.2792      2.00000
     29      -7.2235      2.00000
     30      -7.1754      2.00000
     31      -3.4747      2.00000
     32      -3.3944      2.00000
     33      -3.3329      2.00000
     34      -2.9850      2.00000
     35      -2.9631      2.00000
     36      -2.8985      2.00000
     37      -2.8398      2.00000
     38      -2.8015      2.00000
     39      -2.7430      2.00000
     40      -2.4842      2.00000
     41      -2.4535      2.00000
     42      -2.4110      2.00000
     43      -2.3492      2.00000
     44      -2.2781      2.00000
     45      -2.1943      2.00000
     46      -2.1556      2.00000
     47      -2.1392      2.00000
     48      -2.0747      2.00000
     49      -2.0648      2.00000
     50      -2.0183      2.00000
     51      -1.8726      2.00000
     52      -1.8197      2.00000
     53      -1.7854      2.00000
     54      -1.7433      2.00000
     55      -1.7176      2.00000
     56      -1.6604      2.00000
     57      -1.6054      2.00000
     58      -1.4707      2.00000
     59      -1.3917      2.00000
     60      -1.3627      2.00000
     61      -1.3483      2.00000
     62      -1.2471      2.00000
     63      -1.1678      2.00000
     64      -1.1148      2.00000
     65      -1.0735      2.00000
     66      -0.9057      2.00000
     67      -0.7751      2.00000
     68      -0.7296      2.00000
     69      -0.6694      2.00000
     70      -0.6228      2.00000
     71      -0.5757      2.00000
     72      -0.4596      2.00000
     73      -0.2855      2.00000
     74      -0.1745      2.00000
     75      -0.0904      2.00000
     76      -0.0674      2.00000
     77       0.0192      2.00000
     78       0.0796      2.00002
     79       0.1163      2.00007
     80       0.1959      2.00062
     81       0.2413      2.00187
     82       0.2877      2.00507
     83       0.3289      2.01104
     84       0.4024      2.03352
     85       0.8951      0.06582
     86       0.9444     -0.04294
     87       0.9683     -0.06394
     88       0.9876     -0.07037
     89       1.0094     -0.06961
     90       1.0409     -0.05958
     91       1.2027     -0.00634
     92       1.3504     -0.00019
     93       1.3814     -0.00008
     94       1.4908     -0.00000
     95       1.5840     -0.00000
     96       1.6207     -0.00000
     97       1.8543     -0.00000
     98       1.8852     -0.00000
     99       2.0016     -0.00000
    100       2.0805     -0.00000
    101       2.1176     -0.00000
    102       2.1802     -0.00000
    103       2.2757     -0.00000
    104       2.3451     -0.00000
    105       2.3888     -0.00000
    106       2.4037     -0.00000
    107       2.4200     -0.00000
    108       2.5037     -0.00000
    109       2.5464     -0.00000
    110       2.5748     -0.00000
    111       2.6850     -0.00000
    112       2.7547     -0.00000
    113       2.8947     -0.00000
    114       2.9236     -0.00000
    115       3.4296     -0.00000
    116       3.5059     -0.00000
    117       3.7085     -0.00000
    118       4.0277     -0.00000
    119       4.2963     -0.00000
    120       4.5483     -0.00000
    121       4.5867     -0.00000
    122       4.6058     -0.00000
    123       4.6709     -0.00000
    124       4.9061     -0.00000
    125       4.9409     -0.00000
    126       4.9945     -0.00000
    127       5.0246     -0.00000
    128       5.1784     -0.00000

 k-point     4 :       0.4286   -0.0000    0.0000
  band No.  band energies     occupation 
      1     -10.8878      2.00000
      2     -10.8763      2.00000
      3     -10.8555      2.00000
      4     -10.6557      2.00000
      5     -10.6474      2.00000
      6     -10.6307      2.00000
      7     -10.3075      2.00000
      8     -10.1943      2.00000
      9     -10.1746      2.00000
[...]
     61      -1.4035      2.00000
     62      -1.3777      2.00000
     63      -1.2741      2.00000
     64      -1.1681      2.00000
     65      -1.0608      2.00000
     66      -0.9784      2.00000
     67      -0.9503      2.00000
     68      -0.8351      2.00000
     69      -0.7458      2.00000
     70      -0.7001      2.00000
     71      -0.6309      2.00000
     72      -0.4945      2.00000
     73      -0.3173      2.00006
     74      -0.2641      2.00026
     75      -0.2347      2.00057
     76      -0.1764      2.00230
     77      -0.1483      2.00422
     78      -0.0902      2.01264
     79      -0.0396      2.02753
     80       0.0144      2.05100
     81       0.0609      2.06870
     82       0.1230      2.05120
     83       0.1901      1.89715
     84       0.2335      1.68523
     85       1.2220     -0.00000
     86       1.4481     -0.00000
     87       1.5448     -0.00000
     88       1.6516     -0.00000
     89       1.7262     -0.00000
     90       1.7446     -0.00000
     91       1.8087     -0.00000
     92       1.8563     -0.00000
     93       2.0035     -0.00000
     94       2.0529     -0.00000
     95       2.1405     -0.00000
     96       2.1844     -0.00000
     97       2.2250     -0.00000
     98       2.2988     -0.00000
     99       2.3260     -0.00000
    100       2.3983     -0.00000
    101       2.4670     -0.00000
    102       2.4979     -0.00000
    103       2.6108     -0.00000
    104       2.6373     -0.00000
    105       2.7190     -0.00000
    106       2.7467     -0.00000
    107       2.8115     -0.00000
    108       2.9146     -0.00000
    109       3.0128     -0.00000
    110       3.0395     -0.00000
    111       3.1356     -0.00000
    112       3.1596     -0.00000
    113       3.2554     -0.00000
    114       3.2795     -0.00000
    115       3.3214     -0.00000
    116       3.3899     -0.00000
    117       3.4762     -0.00000
    118       4.0595     -0.00000
    119       4.3847     -0.00000
    120       4.4628     -0.00000
    121       4.5443     -0.00000
    122       4.6711     -0.00000
    123       4.8660     -0.00000
    124       4.9303     -0.00000
    125       5.1958     -0.00000
    126       5.2979     -0.00000
    127       5.3285     -0.00000
    128       5.4922     -0.00000


--------------------------------------------------------------------------------------------------------


 soft charge-density along one line, spin component           1
         0         1         2         3         4         5         6         7         8         9
 total charge-density along one line
 
 pseudopotential strength for first ion, spin component:           1
 41.639  -0.039   0.009   0.030   0.021   0.000   0.000   0.000
 -0.039   1.459   0.000   0.000  -0.000  -0.000  -0.000  -0.000
  0.009   0.000   9.542  -0.002  -0.001   0.000  -0.000  -0.000
  0.030   0.000  -0.002   9.539  -0.000  -0.000   0.000  -0.000
  0.021  -0.000  -0.001  -0.000   9.540  -0.000  -0.000   0.000
  0.000  -0.000   0.000  -0.000  -0.000   0.007   0.000   0.000
  0.000  -0.000  -0.000   0.000  -0.000   0.000   0.007   0.000
  0.000  -0.000  -0.000  -0.000   0.000   0.000   0.000   0.007
 -0.002   0.000  -0.001   0.001   0.000   0.000   0.000   0.000
 -0.004   0.000   0.001   0.002   0.001   0.000   0.000   0.000
 -0.002   0.000  -0.000   0.002   0.001  -0.000   0.001  -0.000
 -0.000   0.000   0.001   0.000   0.001   0.000   0.000   0.000
 -0.001   0.000  -0.002   0.000   0.000  -0.000   0.000   0.000
 total augmentation occupancy for first ion, spin component:           1
  2.060  -0.032  -0.050  -0.180  -0.148   0.008   0.091   0.094   0.008  -0.019  -0.007   0.016   0.001
 -0.032   0.010   0.015   0.045   0.033  -0.005  -0.016  -0.011  -0.002   0.005   0.001  -0.006  -0.000
 -0.050   0.015   0.853   0.071   0.025  -0.274  -0.044   0.001   0.041   0.043  -0.014  -0.026   0.009
 -0.180   0.045   0.071   0.920   0.011  -0.044  -0.300   0.037  -0.026   0.010   0.032  -0.004  -0.003
 -0.148   0.033   0.025   0.011   0.890   0.001   0.037  -0.294   0.039  -0.018  -0.030   0.029   0.015
  0.008  -0.005  -0.274  -0.044   0.001   0.138   0.038  -0.011  -0.014  -0.016   0.005   0.008  -0.005
  0.091  -0.016  -0.044  -0.300   0.037   0.038   0.159  -0.039   0.008  -0.002  -0.013  -0.001   0.003
  0.094  -0.011   0.001   0.037  -0.294  -0.011  -0.039   0.150  -0.015   0.008   0.012  -0.011  -0.007
  0.008  -0.002   0.041  -0.026   0.039  -0.014   0.008  -0.015   0.010  -0.005  -0.004   0.004   0.003
 -0.019   0.005   0.043   0.010  -0.018  -0.016  -0.002   0.008  -0.005   0.016   0.003  -0.008  -0.001
 -0.007   0.001  -0.014   0.032  -0.030   0.005  -0.013   0.012  -0.004   0.003   0.007  -0.003  -0.002
  0.016  -0.006  -0.026  -0.004   0.029   0.008  -0.001  -0.011   0.004  -0.008  -0.003   0.012  -0.001
  0.001  -0.000   0.009  -0.003   0.015  -0.005   0.003  -0.007   0.003  -0.001  -0.002  -0.001   0.007


------------------------ aborting loop because EDIFF is reached ----------------------------------------


 


 total charge     
 
# of ion       s       p       d       tot
------------------------------------------
    1        1.257   0.974   0.030   2.261
    2        1.246   1.045   0.040   2.332
    3        1.247   1.041   0.041   2.329
    4        1.243   1.058   0.044   2.345
    5        1.241   1.058   0.041   2.340
    6        1.241   1.058   0.042   2.341
    7        1.248   1.046   0.042   2.336
    8        1.246   1.041   0.043   2.330
    9        1.246   1.042   0.043   2.331
   10        1.245   1.048   0.039   2.332
   11        1.243   1.051   0.041   2.335
   12        1.243   1.053   0.040   2.336
   13        1.394   1.945   0.021   3.360
   14        1.398   1.932   0.021   3.352
   15        1.401   1.933   0.028   3.362
   16        1.397   1.939   0.022   3.358
   17        1.398   1.938   0.022   3.358
   18        1.399   1.930   0.026   3.355
   19        1.398   1.937   0.023   3.358
   20        1.399   1.934   0.023   3.356
   21        1.399   1.933   0.026   3.358
   22        1.401   1.920   0.021   3.342
   23        1.395   1.910   0.015   3.321
   24        1.401   1.904   0.022   3.327
   25        1.400   1.934   0.024   3.357
   26        1.395   1.936   0.020   3.351
   27        1.402   1.936   0.031   3.369
   28        1.399   1.935   0.023   3.357
   29        1.398   1.937   0.023   3.358
   30        1.400   1.936   0.027   3.364
--------------------------------------------------
tot         40.121  47.284   0.906  88.310
 
    CHARGE:  cpu time    0.1706: real time    0.1707
    FORLOC:  cpu time    0.0035: real time    0.0035
    FORNL :  cpu time    0.2855: real time    0.2858
    STRESS:  cpu time    1.3835: real time    1.3842
    FORCOR:  cpu time    0.0651: real time    0.0651
    FORHAR:  cpu time    0.0155: real time    0.0155
    MIXING:  cpu time    0.0006: real time    0.0006
    OFIELD:  cpu time    0.0000: real time    0.0000

  FORCE on cell =-STRESS in cart. coord.  units (eV):
  Direction    XX          YY          ZZ          XY          YZ          ZX
  --------------------------------------------------------------------------------------
  Alpha Z    -5.40434    -5.40434    -5.40434
  Ewald   -2972.37443   439.51355  -368.89621  -239.04356    54.70534 -2221.69887
  Hartree  -643.04645  1910.69692  1272.65338  -165.58628    -5.67748 -1640.16035
  E(xc)    -663.44162  -659.07278  -659.91044    -0.84099     1.34352    -3.05795
  Local     639.48250 -5282.15362 -3855.37723   410.33506   -56.61631  3840.45717
  n-local  3003.16236  2978.72184  2988.84140    -0.17247    -0.21605    13.39813
  augment  -689.61478  -679.01419  -683.50152     0.60193    -0.62158    -5.30732
  Kinetic  1329.64190  1297.35487  1314.71779    -9.13320    11.94846    12.23378
  Fock        0.00000     0.00000     0.00000     0.00000     0.00000     0.00000
  -------------------------------------------------------------------------------------
  Total      -1.59487     0.64224     3.12284    -3.83950     4.86590    -4.13540
  in kB      -1.25510     0.50542     2.45755    -3.02154     3.82927    -3.25440
  external pressure =        0.57 kB  Pullay stress =        0.00 kB


 VOLUME and BASIS-vectors are now :
 -----------------------------------------------------------------------------
  energy-cutoff  :      300.00
  volume of cell :     2035.91
      direct lattice vectors                 reciprocal lattice vectors
     3.750449470  0.000000000 -6.495968952     0.266634708  0.000000000  0.000000000
    -0.000000000 31.337301284 -4.330645995     0.000000000  0.031910853  0.000000000
     0.000000000  0.000000000 17.322583980     0.099988015  0.007977713  0.057728108

  length of vectors
     7.500898870 31.635122040 17.322583980     0.266634708  0.031910853  0.115731506


 FORCES acting on ions
    electron-ion (+dipol)            ewald-force                    non-local-force                 convergence-correction
 -----------------------------------------------------------------------------------------------
   0.505E+02 -.103E+02 0.354E+02   -.554E+02 0.894E+01 -.414E+02   0.632E+01 0.169E+01 0.722E+01   0.230E-05 0.105E-02 -.303E-03
   0.689E+02 0.246E+02 0.335E+02   -.782E+02 -.231E+02 -.358E+02   0.932E+01 -.152E+01 0.229E+01   -.308E-04 0.107E-02 0.182E-03
   0.634E+02 -.180E+02 0.428E+02   -.702E+02 0.166E+02 -.497E+02   0.676E+01 0.143E+01 0.696E+01   0.732E-03 0.115E-02 -.291E-05
   0.659E+02 0.837E+01 0.319E+02   -.753E+02 -.593E+01 -.340E+02   0.930E+01 -.245E+01 0.217E+01   -.163E-04 -.157E-02 -.376E-03
   0.619E+02 -.195E+02 0.420E+02   -.686E+02 0.176E+02 -.492E+02   0.668E+01 0.194E+01 0.728E+01   -.420E-03 -.299E-02 -.167E-04
   0.625E+02 0.178E+02 0.330E+02   -.723E+02 -.156E+02 -.352E+02   0.973E+01 -.218E+01 0.211E+01   0.130E-04 0.121E-02 -.278E-03
   -.639E+02 -.228E+02 -.315E+02   0.735E+02 0.214E+02 0.331E+02   -.965E+01 0.140E+01 -.157E+01   0.266E-03 0.145E-02 0.335E-03
   -.595E+02 0.180E+02 -.362E+02   0.666E+02 -.172E+02 0.428E+02   -.667E+01 -.986E+00 -.718E+01   0.417E-04 0.106E-02 0.180E-04
   -.675E+02 -.201E+02 -.368E+02   0.766E+02 0.194E+02 0.394E+02   -.953E+01 0.673E+00 -.191E+01   -.414E-03 0.123E-02 0.753E-04
   -.527E+02 0.166E+02 -.350E+02   0.591E+02 -.146E+02 0.428E+02   -.635E+01 -.197E+01 -.779E+01   0.326E-03 -.153E-02 0.379E-03
   -.674E+02 -.141E+02 -.339E+02   0.769E+02 0.119E+02 0.362E+02   -.956E+01 0.218E+01 -.220E+01   0.301E-03 -.343E-02 0.461E-03
   -.615E+02 0.148E+02 -.438E+02   0.682E+02 -.129E+02 0.511E+02   -.662E+01 -.193E+01 -.726E+01   0.424E-03 0.151E-02 -.118E-03
   0.618E+02 0.670E+02 0.445E+02   -.639E+02 -.715E+02 -.475E+02   0.210E+01 0.456E+01 0.305E+01   -.200E-03 0.748E-03 0.431E-03
   0.437E+02 -.393E+02 0.230E+02   -.475E+02 0.443E+02 -.237E+02   0.371E+01 -.499E+01 0.618E+00   0.987E-04 0.118E-02 0.271E-03
   0.699E+02 0.471E+01 0.372E+02   -.746E+02 -.497E+01 -.404E+02   0.476E+01 0.293E+00 0.319E+01   0.135E-03 0.226E-02 -.146E-03
   0.606E+02 0.419E+02 0.411E+02   -.628E+02 -.472E+02 -.429E+02   0.250E+01 0.536E+01 0.144E+01   -.388E-03 -.881E-03 -.624E-04
   0.656E+02 -.453E+02 0.343E+02   -.690E+02 0.500E+02 -.350E+02   0.345E+01 -.470E+01 0.545E+00   0.343E-03 0.636E-03 0.386E-03
   0.644E+02 0.182E+01 0.369E+02   -.690E+02 -.176E+01 -.397E+02   0.463E+01 -.647E-01 0.279E+01   -.291E-04 0.185E-02 0.343E-04
   0.584E+02 0.448E+02 0.357E+02   -.606E+02 -.498E+02 -.383E+02   0.224E+01 0.506E+01 0.262E+01   -.276E-03 0.708E-03 -.167E-03
   0.583E+02 -.477E+02 0.307E+02   -.614E+02 0.530E+02 -.311E+02   0.319E+01 -.529E+01 0.408E+00   -.321E-03 -.321E-02 0.221E-03
   0.780E+02 -.267E+01 0.428E+02   -.831E+02 0.302E+01 -.459E+02   0.505E+01 -.387E+00 0.307E+01   -.112E-02 -.295E-02 -.169E-03
   -.388E+02 0.470E+02 -.183E+02   0.422E+02 -.521E+02 0.190E+02   -.342E+01 0.508E+01 -.739E+00   0.316E-03 0.540E-03 0.165E-03
   -.531E+02 -.558E+02 -.487E+02   0.548E+02 0.597E+02 0.517E+02   -.290E+01 -.461E+01 -.308E+01   0.489E-03 0.959E-03 -.112E-03
   -.818E+02 -.645E+01 -.373E+02   0.863E+02 0.705E+01 0.396E+02   -.483E+01 -.232E+00 -.334E+01   0.161E-03 0.189E-02 0.310E-03
   -.588E+02 0.412E+02 -.330E+02   0.621E+02 -.464E+02 0.331E+02   -.340E+01 0.519E+01 -.704E-01   0.620E-03 -.369E-03 0.121E-04
   -.650E+02 -.470E+02 -.404E+02   0.676E+02 0.520E+02 0.430E+02   -.258E+01 -.493E+01 -.260E+01   -.137E-03 0.887E-03 -.370E-03
   -.657E+02 0.122E+01 -.385E+02   0.704E+02 -.132E+01 0.412E+02   -.472E+01 0.984E-01 -.268E+01   -.471E-03 0.175E-02 -.323E-03
   -.576E+02 0.464E+02 -.307E+02   0.606E+02 -.518E+02 0.312E+02   -.296E+01 0.532E+01 -.503E+00   -.158E-03 0.872E-03 -.784E-03
   -.574E+02 -.456E+02 -.346E+02   0.596E+02 0.508E+02 0.371E+02   -.225E+01 -.520E+01 -.247E+01   -.539E-03 -.329E-02 0.239E-03
   -.822E+02 -.409E+00 -.460E+02   0.874E+02 0.380E+00 0.487E+02   -.523E+01 0.287E-01 -.260E+01   0.108E-02 -.287E-02 0.693E-03
 -----------------------------------------------------------------------------------------------
   0.904E+00 0.111E+01 0.234E+00   0.142E-13 -.142E-12 0.355E-13   -.904E+00 -.111E+01 -.236E+00   0.829E-03 0.937E-03 0.983E-03
 
 
 POSITION                                       TOTAL-FORCE (eV/Angst)
 -----------------------------------------------------------------------------------
      2.50030      1.98657     -0.72178         1.359162      0.331159      1.264250
      2.74661      8.41712     -5.07824        -0.008145     -0.025740     -0.028431
      0.08135     12.41623     -0.45169         0.004287      0.028669      0.012076
      0.22464     19.01807     -0.91957        -0.052662     -0.013059      0.042866
      1.13864     22.82910     -2.42272        -0.020923      0.046942      0.015653
      1.70727     29.40582     -3.16679        -0.033308     -0.016891     -0.098162
      2.32134      2.06434      3.62759         0.017645      0.000696      0.030258
      2.50030      8.45922     -0.72178         0.398080     -0.176175     -0.623851
     -0.00000     12.43233      3.60887        -0.378970      0.015084      0.665858
     -0.18595     18.74279      3.20898         0.015301      0.036106      0.036161
      0.88203     22.75473      1.78307        -0.028541     -0.029467      0.034137
      1.43059     29.38171      0.99866         0.014982      0.019982      0.028473
      0.25953      6.87103     -0.77264        -0.085240      0.025047      0.058233
      1.21424      3.44230      1.47271        -0.056820      0.067918     -0.081140
      0.29808      0.02280      3.60638         0.028667      0.032937      0.012378
      1.25015     17.19508     -2.88709         0.283138      0.018711     -0.352457
      2.54883     13.99741     -4.79520         0.012377     -0.015789     -0.107473
      1.65018     10.44126     -2.65534         0.004078      0.001364      0.005206
      2.88454     27.82789     -5.29928         0.031111      0.036825      0.016234
     -0.02672     24.39320     -0.27449         0.009745     -0.019749      0.024951
      2.51551     20.84925     -4.94520        -0.050623     -0.037020      0.037905
     -0.00854      6.90149      3.52085         0.020105     -0.041740      0.032769
      1.25015      3.69643      5.77420        -1.154603     -0.670618     -0.078809
      0.00000      0.00000      7.93952        -0.259445      0.366748     -1.045115
      1.14775     17.32196      1.07709        -0.140711     -0.007047      0.026622
      2.44518     13.86181     -0.59484         0.039795      0.017756      0.022164
      1.07445     10.41842      1.36785        -0.015960     -0.006274     -0.013795
      2.56210     27.73165     -1.10579         0.035081      0.017598      0.005478
     -0.32802     24.41039      3.83829        -0.013145     -0.000693     -0.010572
      2.36779     20.88309     -0.77132         0.025543     -0.003282      0.068133
 -----------------------------------------------------------------------------------
    total drift:                               -0.000099     -0.000592     -0.000860


--------------------------------------------------------------------------------------------------------



  FREE ENERGIE OF THE ION-ELECTRON SYSTEM (eV)
  ---------------------------------------------------
  free  energy   TOTEN  =      -104.51051354 eV

  energy  without entropy=     -104.58733347  energy(sigma->0) =     -104.53612018
 
 d Force = 0.1514616E-01[ 0.122E-01, 0.181E-01]  d Energy = 0.1516306E-01-0.169E-04
 d Force =-0.2379741E+00[-0.241E+00,-0.235E+00]  d Ewald  =-0.2379808E+00 0.667E-05


--------------------------------------------------------------------------------------------------------


    POTLOK:  cpu time    0.0888: real time    0.0888


--------------------------------------------------------------------------------------------------------


 Conjugate gradient step on ions:
 trial-energy change:   -0.015163  1 .order   -0.015146   -0.018083   -0.012209
  (g-gl).g = 0.100E-01      g.g   = 0.101E-01  gl.gl    = 0.120E-01
 g(Force)  = 0.101E-01   g(Stress)= 0.000E+00 ortho     = 0.526E-03
 gamma     =   0.83153
 trial     =   1.71606
 opt step  =   5.28335  (harmonic =   5.28335) maximal distance =0.04663163
 next E    =  -104.523187   (d E  =  -0.02784)


--------------------------------------------------------------------------------------------------------


 writing wavefunctions
     LOOP+:  cpu time   33.5319: real time   33.7320
    4ORBIT:  cpu time    0.0000: real time    0.0000
 


 total charge     
 
# of ion       s       p       d       tot
------------------------------------------
    1        1.257   0.974   0.030   2.261
    2        1.246   1.045   0.040   2.332
    3        1.247   1.041   0.041   2.329
    4        1.243   1.058   0.044   2.345
    5        1.241   1.058   0.041   2.340
    6        1.241   1.058   0.042   2.341
    7        1.248   1.046   0.042   2.336
    8        1.246   1.041   0.043   2.330
    9        1.246   1.042   0.043   2.331
   10        1.245   1.048   0.039   2.332
   11        1.243   1.051   0.041   2.335
   12        1.243   1.053   0.040   2.336
   13        1.394   1.945   0.021   3.360
   14        1.398   1.932   0.021   3.352
   15        1.401   1.933   0.028   3.362
   16        1.397   1.939   0.022   3.358
   17        1.398   1.938   0.022   3.358
   18        1.399   1.930   0.026   3.355
   19        1.398   1.937   0.023   3.358
   20        1.399   1.934   0.023   3.356
   21        1.399   1.933   0.026   3.358
   22        1.401   1.920   0.021   3.342
   23        1.395   1.910   0.015   3.321
   24        1.401   1.904   0.022   3.327
   25        1.400   1.934   0.024   3.357
   26        1.395   1.936   0.020   3.351
   27        1.402   1.936   0.031   3.369
   28        1.399   1.935   0.023   3.357
   29        1.398   1.937   0.023   3.358
   30        1.400   1.936   0.027   3.364
--------------------------------------------------
tot         40.121  47.284   0.906  88.310
 

 total amount of memory used by VASP MPI-rank0    82251. kBytes
=======================================================================

   base      :      30000. kBytes
   nonl-proj :      30416. kBytes
   fftplans  :       7836. kBytes
   grid      :      11773. kBytes
   one-center:         64. kBytes
   wavefun   :       2162. kBytes
 
  
  
 General timing and accounting informations for this job:
 ========================================================
  
                  Total CPU time used (sec):      866.318
                            User time (sec):      842.121
                          System time (sec):       24.198
                         Elapsed time (sec):      882.331
  
                   Maximum memory used (kb):      293732.
                   Average memory used (kb):           0.
  
                          Minor page faults:       264200
                          Major page faults:           45
                 Voluntary context switches:        18404
