 vasp.5.4.4.18Apr17-6-g9f103f2a35 (build Aug 29 2022 10:07:22) complex          
  
 executed on           IFC91_ompi date 2022.09.30  23:56:30
 running on  512 total cores
 distrk:  each k-point on  512 cores,    1 groups
 distr:  one band on NCORES_PER_BAND=   4 cores,  128 groups


--------------------------------------------------------------------------------------------------------


 INCAR:
 POTCAR:   PAW_PBE Sb 06Sep2000                   
 POTCAR:   PAW_PBE Te 08Apr2002                   

 ----------------------------------------------------------------------------- 
|                                                                             |
|           W    W    AA    RRRRR   N    N  II  N    N   GGGG   !!!           |
|           W    W   A  A   R    R  NN   N  II  NN   N  G    G  !!!           |
|           W    W  A    A  R    R  N N  N  II  N N  N  G       !!!           |
|           W WW W  AAAAAA  RRRRR   N  N N  II  N  N N  G  GGG   !            |
|           WW  WW  A    A  R   R   N   NN  II  N   NN  G    G                |
|           W    W  A    A  R    R  N    N  II  N    N   GGGG   !!!           |
|                                                                             |
|      For optimal performance we recommend to set                            |
|        NCORE= 4 - approx SQRT( number of cores)                             |
|      NCORE specifies how many cores store one orbital (NPAR=cpu/NCORE).     |
|      This setting can  greatly improve the performance of VASP for DFT.     |
|      The default,   NCORE=1            might be grossly inefficient         |
|      on modern multi-core architectures or massively parallel machines.     |
|      Do your own testing !!!!                                               |
|      Unfortunately you need to use the default for GW and RPA calculations. |
|      (for HF NCORE is supported but not extensively tested yet)             |
|                                                                             |
 ----------------------------------------------------------------------------- 

 POTCAR:   PAW_PBE Sb 06Sep2000                   
   VRHFIN =Sb: s2p3                                                             
   LEXCH  = PE                                                                  
   EATOM  =   149.8037 eV,   11.0103 Ry                                         
                                                                                
   TITEL  = PAW_PBE Sb 06Sep2000                                                
   LULTRA =        F    use ultrasoft PP ?                                      
   IUNSCR =        1    unscreen: 0-lin 1-nonlin 2-no                           
   RPACOR =    2.200    partial core radius                                     
   POMASS =  121.750; ZVAL   =    5.000    mass and valenz                      
   RCORE  =    2.300    outmost cutoff radius                                   
   RWIGS  =    2.980; RWIGS  =    1.577    wigner-seitz radius (au A)           
   ENMAX  =  172.037; ENMIN  =  129.028 eV                                      
   ICORE  =        3    local potential                                         
   LCOR   =        T    correct aug charges                                     
   LPAW   =        T    paw PP                                                  
   EAUG   =  380.513                                                            
   DEXC   =    -.415                                                            
   RMAX   =    3.515    core radius for proj-oper                               
   RAUG   =    1.300    factor for augmentation sphere                          
   RDEP   =    2.360    radius for radial grids                                 
   QCUT   =   -3.556; QGAM   =    7.112    optimization parameters              
                                                                                
   Description                                                                  
     l     E      TYP  RCUT    TYP  RCUT                                        
     0   .000     23  2.300                                                     
     0  1.000     23  2.300                                                     
     1   .000     23  2.300                                                     
     1   .000     23  2.300                                                     
     2   .000     23  2.300                                                     
     3  -.100     23  2.300                                                     
  local pseudopotential read in
  partial core-charges read in
  atomic valenz-charges read in
  non local Contribution for L=           0  read in
    real space projection operators read in
  non local Contribution for L=           0  read in
    real space projection operators read in
  non local Contribution for L=           1  read in
    real space projection operators read in
  non local Contribution for L=           1  read in
    real space projection operators read in
  non local Contribution for L=           2  read in
    real space projection operators read in
    PAW grid and wavefunctions read in
 
   number of l-projection  operators is LMAX  =           5
   number of lm-projection operators is LMMAX =          13
 
 POTCAR:   PAW_PBE Te 08Apr2002                   
   VRHFIN =Te: s2p4                                                             
   LEXCH  = PE                                                                  
   EATOM  =   223.2721 eV,   16.4100 Ry                                         
                                                                                
   TITEL  = PAW_PBE Te 08Apr2002                                                
   LULTRA =        F    use ultrasoft PP ?                                      
   IUNSCR =        1    unscreen: 0-lin 1-nonlin 2-no                           
   RPACOR =    2.200    partial core radius                                     
   POMASS =  127.600; ZVAL   =    6.000    mass and valenz                      
   RCORE  =    2.300    outmost cutoff radius                                   
   RWIGS  =    2.900; RWIGS  =    1.535    wigner-seitz radius (au A)           
   ENMAX  =  174.982; ENMIN  =  131.236 eV                                      
   ICORE  =        3    local potential                                         
   LCOR   =        T    correct aug charges                                     
   LPAW   =        T    paw PP                                                  
   EAUG   =  368.792                                                            
   DEXC   =    -.169                                                            
   RMAX   =    3.486    core radius for proj-oper                               
   RAUG   =    1.300    factor for augmentation sphere                          
   RDEP   =    2.397    radius for radial grids                                 
   QCUT   =   -3.586; QGAM   =    7.172    optimization parameters              
                                                                                
   Description                                                                  
     l     E      TYP  RCUT    TYP  RCUT                                        
     0   .000     23  2.300                                                     
     0   .000     23  2.300                                                     
     1   .000     23  2.300                                                     
     1   .000     23  2.300                                                     
     2   .000     23  2.300                                                     
     3  -.100     23  2.300                                                     
  local pseudopotential read in
  partial core-charges read in
  atomic valenz-charges read in
  non local Contribution for L=           0  read in
    real space projection operators read in
  non local Contribution for L=           0  read in
    real space projection operators read in
  non local Contribution for L=           1  read in
    real space projection operators read in
  non local Contribution for L=           1  read in
    real space projection operators read in
  non local Contribution for L=           2  read in
    real space projection operators read in
    PAW grid and wavefunctions read in
 
   number of l-projection  operators is LMAX  =           5
   number of lm-projection operators is LMMAX =          13
 

 ----------------------------------------------------------------------------- 
|                                                                             |
|  ADVICE TO THIS USER RUNNING 'VASP/VAMP'   (HEAR YOUR MASTER'S VOICE ...):  |
|                                                                             |
|      You have a (more or less) 'large supercell' and for larger cells       |
|      it might be more efficient to use real space projection operators      |
|      So try LREAL= Auto  in the INCAR   file.                               |
|      Mind: If you want to do a very accurate calculations keep the          |
|      reciprocal projection scheme          (i.e. LREAL=.FALSE.)             |
|                                                                             |
 ----------------------------------------------------------------------------- 

 PAW_PBE Sb 06Sep2000                   :
 energy of atom  1       EATOM= -149.8037
 kinetic energy error for atom=    0.0018 (will be added to EATOM!!)
 PAW_PBE Te 08Apr2002                   :
 energy of atom  2       EATOM= -223.2721
 kinetic energy error for atom=    0.0026 (will be added to EATOM!!)
 
 
 POSCAR: Sb12 Te18                               
  positions in direct lattice
  No initial velocities read in
 exchange correlation table for  LEXCH =        8
   RHO(1)=    0.500       N(1)  =     2000
   RHO(2)=  100.500       N(2)  =     4000
 


--------------------------------------------------------------------------------------------------------


 ion  position               nearest neighbor table
   1  0.667  0.063  0.042-  14 3.03  14 3.03  15 3.19
   2  0.667  0.270  0.042-  13 3.03  18 3.19  18 3.19
   3  0.000  0.397  0.208-  26 3.03  26 3.03  17 3.03  18 3.19  27 3.19  18 3.19
   4  0.000  0.603  0.208-  16 3.03  25 3.03  16 3.03  30 3.19  30 3.19  21 3.19
   5  0.333  0.730  0.125-  20 3.03  20 3.03  30 3.19  21 3.19  21 3.19
   6  0.333  0.937  0.125-  28 3.03  19 3.03  19 3.03  15 3.19  15 3.19
   7  0.667  0.063  0.292-  14 3.03  23 3.03  23 3.03  15 3.19  15 3.19  24 3.19
   8  0.667  0.270  0.292-  13 3.03  13 3.03  22 3.03  18 3.19  27 3.19  27 3.19
   9  0.000  0.397  0.458-  26 3.03  27 3.19  27 3.19
  10  0.000  0.603  0.458-  25 3.03  25 3.03  30 3.19
  11  0.333  0.730  0.375-  29 3.03  20 3.03  29 3.03  30 3.19  30 3.19
  12  0.333  0.937  0.375-  28 3.03  28 3.03  24 3.19  15 3.19  24 3.19
  13  0.000  0.215  0.208-   8 3.03   8 3.03   2 3.03
  14  0.333  0.118  0.125-   7 3.03   1 3.03   1 3.03
  15  0.000  0.000  0.208-   7 3.19   6 3.19  12 3.19   7 3.19   6 3.19   1 3.19
  16  0.333  0.549  0.125-   4 3.03   4 3.03
  17  0.667  0.451  0.042-   3 3.03
  18  0.333  0.333  0.125-   8 3.19   2 3.19   2 3.19   3 3.19   3 3.19
  19  0.667  0.882  0.042-   6 3.03   6 3.03
  20  0.000  0.785  0.208-   5 3.03  11 3.03   5 3.03
  21  0.667  0.667  0.042-   5 3.19   5 3.19   4 3.19
  22  0.000  0.215  0.458-   8 3.03
  23  0.333  0.118  0.375-   7 3.03   7 3.03
  24  0.000  0.000  0.458-  12 3.19  12 3.19   7 3.19
  25  0.333  0.549  0.375-  10 3.03   4 3.03  10 3.03
  26  0.667  0.451  0.292-   3 3.03   3 3.03   9 3.03
  27  0.333  0.333  0.375-   8 3.19   8 3.19   9 3.19   3 3.19   9 3.19
  28  0.667  0.882  0.292-   6 3.03  12 3.03  12 3.03
  29  0.000  0.785  0.458-  11 3.03  11 3.03
  30  0.667  0.667  0.292-   5 3.19  11 3.19  11 3.19   4 3.19   4 3.19  10 3.19
 
  LATTYP: Found a simple orthorhombic cell.
 ALAT       =     4.3306459950
 B/A-ratio  =     3.4641016365
 C/A-ratio  =     7.2361724603
  
  Lattice vectors:
  
 A1 = (  -3.7504494696,   0.0000000000,   2.1653229573)
 A2 = (  -7.5008989393,   0.0000000000, -12.9919380652)
 A3 = (  -0.0000000000, -31.3373012840,   0.0000000000)


Analysis of symmetry for initial positions (statically):
=====================================================================
 Subroutine PRICEL returns:
 Original cell was already a primitive cell.
 

 Routine SETGRP: Setting up the symmetry group for a 
 simple orthorhombic supercell.


 Subroutine GETGRP returns: Found  4 space group operations
 (whereof  1 operations were pure point group operations)
 out of a pool of  8 trial point group operations.


The static configuration has the point symmetry C_1 .
 The point group associated with its full space group is C_2h.


Analysis of symmetry for dynamics (positions and initial velocities):
=====================================================================
 Subroutine PRICEL returns:
 Original cell was already a primitive cell.
 

 Routine SETGRP: Setting up the symmetry group for a 
 simple orthorhombic supercell.


 Subroutine GETGRP returns: Found  4 space group operations
 (whereof  1 operations were pure point group operations)
 out of a pool of  8 trial point group operations.


The dynamic configuration has the point symmetry C_1 .
 The point group associated with its full space group is C_2h.


Analysis of constrained symmetry for selective dynamics:
=====================================================================
 Subroutine PRICEL returns:
 Original cell was already a primitive cell.
 

 Routine SETGRP: Setting up the symmetry group for a 
 simple orthorhombic supercell.


 Subroutine GETGRP returns: Found  2 space group operations
 (whereof  1 operations were pure point group operations)
 out of a pool of  8 trial point group operations.


The constrained configuration has the point symmetry C_1 .
 The point group associated with its full space group is C_1h.


 Subroutine INISYM returns: Found  2 space group operations
 (whereof  1 operations are pure point group operations),
 and found     1 'primitive' translations

 
 
 KPOINTS: k-point density of [50, 50, 50]/[a, b, c

Automatic generation of k-mesh.
Space group operators:
 irot       det(A)        alpha          n_x          n_y          n_z        tau_x        tau_y        tau_z
    1     1.000000     0.000000     1.000000     0.000000     0.000000     0.000000     0.000000     0.000000
    2    -1.000000   180.000000     0.866025    -0.000000    -0.500000    -0.833335     0.000000    -0.000000
 
 Subroutine IBZKPT returns following result:
 ===========================================
 
 Found     28 irreducible k-points:
 
 Following reciprocal coordinates:
            Coordinates               Weight
  0.000000  0.000000  0.000000      1.000000
  0.083333  0.000000  0.000000      4.000000
  0.166667  0.000000  0.000000      4.000000
  0.250000  0.000000  0.000000      2.000000
  0.333333  0.000000  0.000000      4.000000
  0.416667  0.000000  0.000000      4.000000
  0.500000  0.000000  0.000000      1.000000
  0.000000  0.500000  0.000000      1.000000
  0.083333  0.500000  0.000000      4.000000
  0.166667  0.500000  0.000000      4.000000
  0.250000  0.500000  0.000000      2.000000
  0.333333  0.500000  0.000000      4.000000
  0.416667  0.500000  0.000000      4.000000
  0.500000  0.500000  0.000000      1.000000
  0.000000 -0.000000  0.333333      2.000000
  0.083333  0.000000  0.333333      2.000000
  0.250000  0.000000  0.333333      4.000000
  0.333333  0.000000  0.333333      2.000000
  0.500000  0.000000  0.333333      2.000000
 -0.416667 -0.000000  0.333333      2.000000
 -0.166667 -0.000000  0.333333      2.000000
  0.000000  0.500000  0.333333      2.000000
  0.083333  0.500000  0.333333      2.000000
  0.250000  0.500000  0.333333      4.000000
  0.333333  0.500000  0.333333      2.000000
  0.500000  0.500000  0.333333      2.000000
 -0.416667  0.500000  0.333333      2.000000
 -0.166667  0.500000  0.333333      2.000000
 
 Following cartesian coordinates:
            Coordinates               Weight
  0.000000  0.000000  0.000000      1.000000
  0.022220 -0.000000  0.000000      4.000000
  0.044439 -0.000000  0.000000      4.000000
  0.066659 -0.000000  0.000000      2.000000
  0.088878 -0.000000  0.000000      4.000000
  0.111098 -0.000000  0.000000      4.000000
  0.133317 -0.000000  0.000000      1.000000
  0.000000  0.015955  0.000000      1.000000
  0.022220  0.015955  0.000000      4.000000
  0.044439  0.015955  0.000000      4.000000
  0.066659  0.015955  0.000000      2.000000
  0.088878  0.015955  0.000000      4.000000
  0.111098  0.015955  0.000000      4.000000
  0.133317  0.015955  0.000000      1.000000
  0.011110 -0.000000  0.019243      2.000000
  0.033329 -0.000000  0.019243      2.000000
  0.077768 -0.000000  0.019243      4.000000
  0.099988 -0.000000  0.019243      2.000000
  0.144427 -0.000000  0.019243      2.000000
 -0.099988  0.000000  0.019243      2.000000
 -0.033329  0.000000  0.019243      2.000000
  0.011110  0.015955  0.019243      2.000000
  0.033329  0.015955  0.019243      2.000000
  0.077768  0.015955  0.019243      4.000000
  0.099988  0.015955  0.019243      2.000000
  0.144427  0.015955  0.019243      2.000000
 -0.099988  0.015955  0.019243      2.000000
 -0.033329  0.015955  0.019243      2.000000
 


--------------------------------------------------------------------------------------------------------




 Dimension of arrays:
   k-points           NKPTS =     28   k-points in BZ     NKDIM =     28   number of bands    NBANDS=    128
   number of dos      NEDOS =    301   number of ions     NIONS =     30
   non local maximal  LDIM  =      5   non local SUM 2l+1 LMDIM =     13
   total plane-waves  NPLWV = 423360
   max r-space proj   IRMAX =      1   max aug-charges    IRDMAX=  12293
   dimension x,y,z NGX =    24 NGY =  180 NGZ =   98
   dimension x,y,z NGXF=    48 NGYF=  360 NGZF=  196
   support grid    NGXF=    48 NGYF=  360 NGZF=  196
   ions per type =              12  18
   NGX,Y,Z   is equivalent  to a cutoff of   9.21,  9.55,  9.41 a.u.
   NGXF,Y,Z  is equivalent  to a cutoff of  18.43, 19.10, 18.81 a.u.

 SYSTEM =  Tetradymite Slab                        
 POSCAR =  Sb12 Te18                               

 Startparameter for this run:
   NWRITE =      2    write-flag & timer
   PREC   = accura    normal or accurate (medium, high low for compatibility)
   ISTART =      0    job   : 0-new  1-cont  2-samecut
   ICHARG =      2    charge: 1-file 2-atom 10-const
   ISPIN  =      1    spin polarized calculation?
   LNONCOLLINEAR =      F non collinear calculations
   LSORBIT =      F    spin-orbit coupling
   INIWAV =      1    electr: 0-lowe 1-rand  2-diag
   LASPH  =      F    aspherical Exc in radial PAW
   METAGGA=      F    non-selfconsistent MetaGGA calc.

 Electronic Relaxation 1
   ENCUT  =  300.0 eV  22.05 Ry    4.70 a.u.   6.12 44.26 24.46*2*pi/ulx,y,z
   ENINI  =  300.0     initial cutoff
   ENAUG  =  380.5 eV  augmentation charge cutoff
   NELM   =     80;   NELMIN=  2; NELMDL= -5     # of ELM steps 
   EDIFF  = 0.1E-05   stopping-criterion for ELM
   LREAL  =      F    real-space projection
   NLSPLINE    = F    spline interpolate recip. space projectors
   LCOMPAT=      F    compatible to vasp.4.4
   GGA_COMPAT  = T    GGA compatible to vasp.4.4-vasp.4.6
   LMAXPAW     = -100 max onsite density
   LMAXMIX     =    2 max onsite mixed and CHGCAR
   VOSKOWN=      0    Vosko Wilk Nusair interpolation
   ROPT   =    0.00000   0.00000
 Ionic relaxation
   EDIFFG = -.1E-01   stopping-criterion for IOM
   NSW    =     20    number of steps for IOM
   NBLOCK =      1;   KBLOCK =     20    inner block; outer block 
   IBRION =      2    ionic relax: 0-MD 1-quasi-New 2-CG
   NFREE  =      1    steps in history (QN), initial steepest desc. (CG)
   ISIF   =      2    stress and relaxation
   IWAVPR =     11    prediction:  0-non 1-charg 2-wave 3-comb
   ISYM   =      2    0-nonsym 1-usesym 2-fastsym
   LCORR  =      T    Harris-Foulkes like correction to forces

   POTIM  = 0.5000    time-step for ionic-motion
   TEIN   =    0.0    initial temperature
   TEBEG  =    0.0;   TEEND  =   0.0 temperature during run
   SMASS  =  -3.00    Nose mass-parameter (am)
   estimated Nose-frequenzy (Omega)   =  0.10E-29 period in steps =****** mass=  -0.429E-27a.u.
   SCALEE = 1.0000    scale energy and forces
   NPACO  =    256;   APACO  = 16.0  distance and # of slots for P.C.
   PSTRESS=    0.0 pullay stress

  Mass of Ions in am
   POMASS = 121.75127.60
  Ionic Valenz
   ZVAL   =   5.00  6.00
  Atomic Wigner-Seitz radii
   RWIGS  =  -1.00 -1.00
  virtual crystal weights 
   VCA    =   1.00  1.00
   NELECT =     168.0000    total number of electrons
   NUPDOWN=      -1.0000    fix difference up-down

 DOS related values:
   EMIN   =  10.00;   EMAX   =-10.00  energy-range for DOS
   EFERMI =   0.00
   ISMEAR =     1;   SIGMA  =   0.20  broadening in eV -4-tet -1-fermi 0-gaus

 Electronic relaxation 2 (details)
   IALGO  =     68    algorithm
   LDIAG  =      T    sub-space diagonalisation (order eigenvalues)
   LSUBROT=      F    optimize rotation matrix (better conditioning)
   TURBO    =      0    0=normal 1=particle mesh
   IRESTART =      0    0=no restart 2=restart with 2 vectors
   NREBOOT  =      0    no. of reboots
   NMIN     =      0    reboot dimension
   EREF     =   0.00    reference energy to select bands
   IMIX   =      4    mixing-type and parameters
     AMIX     =   0.40;   BMIX     =  1.00
     AMIX_MAG =   1.60;   BMIX_MAG =  1.00
     AMIN     =   0.10
     WC   =   100.;   INIMIX=   1;  MIXPRE=   1;  MAXMIX= -45

 Intra band minimization:
   WEIMIN = 0.0010     energy-eigenvalue tresh-hold
   EBREAK =  0.20E-08  absolut break condition
   DEPER  =   0.30     relativ break condition  

   TIME   =   0.40     timestep for ELM

  volume/ion in A,a.u.               =      67.86       457.97
  Fermi-wavevector in a.u.,A,eV,Ry     =   0.712731  1.346866  6.911554  0.507985
  Thomas-Fermi vector in A             =   1.800183
 
 Write flags
   LWAVE        =      T    write WAVECAR
   LDOWNSAMPLE  =      F    k-point downsampling of WAVECAR
   LCHARG       =      T    write CHGCAR
   LVTOT        =      F    write LOCPOT, total local potential
   LVHAR        =      F    write LOCPOT, Hartree potential only
   LELF         =      F    write electronic localiz. function (ELF)
   LORBIT       =     11    0 simple, 1 ext, 2 COOP (PROOUT), +10 PAW based schemes


 Dipole corrections
   LMONO  =      F    monopole corrections only (constant potential shift)
   LDIPOL =      F    correct potential (dipole corrections)
   IDIPOL =      0    1-x, 2-y, 3-z, 4-all directions 
   EPSILON=  1.0000000 bulk dielectric constant

 Exchange correlation treatment:
   GGA     =    --    GGA type
   LEXCH   =     8    internal setting for exchange type
   VOSKOWN=      0    Vosko Wilk Nusair interpolation
   LHFCALC =     F    Hartree Fock is set to
   LHFONE  =     F    Hartree Fock one center treatment
   AEXX    =    0.0000 exact exchange contribution

 Linear response parameters
   LEPSILON=     F    determine dielectric tensor
   LRPA    =     F    only Hartree local field effects (RPA)
   LNABLA  =     F    use nabla operator in PAW spheres
   LVEL    =     F    velocity operator in full k-point grid
   LINTERFAST=   F  fast interpolation
   KINTER  =     0    interpolate to denser k-point grid
   CSHIFT  =0.1000    complex shift for real part using Kramers Kronig
   OMEGAMAX=  -1.0    maximum frequency
   DEG_THRESHOLD= 0.2000000E-02 threshold for treating states as degnerate
   RTIME   =   -0.100 relaxation time in fs
  (WPLASMAI=    0.000 imaginary part of plasma frequency in eV, 0.658/RTIME)
   DFIELD  = 0.0000000 0.0000000 0.0000000 field for delta impulse in time
 
 Orbital magnetization related:
   ORBITALMAG=     F  switch on orbital magnetization
   LCHIMAG   =     F  perturbation theory with respect to B field
   DQ        =  0.001000  dq finite difference perturbation B field
   LLRAUG    =     F  two centre corrections for induced B field



--------------------------------------------------------------------------------------------------------


 conjugate gradient relaxation of ions
   using selective dynamics as specified on POSCAR
 charge density and potential will be updated during run
 non-spin polarized calculation
 RMM-DIIS sequential band-by-band and
  variant of blocked Davidson during initial phase
 perform sub-space diagonalisation
    before iterative eigenvector-optimisation
 modified Broyden-mixing scheme, WC =      100.0
 initial mixing is a Kerker type mixing with AMIX =  0.4000 and BMIX =      1.0000
 Hartree-type preconditioning will be used
 using additional bands           44
 reciprocal scheme for non local part
 use partial core corrections
 calculate Harris-corrections to forces 
   (improved forces if not selfconsistent)
 use gradient corrections 
 use of overlap-Matrix (Vanderbilt PP)
 Methfessel and Paxton  Order N= 1 SIGMA  =   0.20


--------------------------------------------------------------------------------------------------------


  energy-cutoff  :      300.00
  volume of cell :     2035.91
      direct lattice vectors                 reciprocal lattice vectors
     3.750449470  0.000000000 -2.165322957     0.266634708 -0.000000000  0.000000000
     0.000000000 31.337301284  0.000000000     0.000000000  0.031910853  0.000000000
     0.000000000  0.000000000 17.322583980     0.033329338 -0.000000000  0.057728108

  length of vectors
     4.330645995 31.337301284 17.322583980     0.266634708  0.031910853  0.066658677


 
 k-points in units of 2pi/SCALE and weight: k-point density of [50, 50, 50]/[a, b, c
   0.00000000  0.00000000  0.00000000       0.014
   0.02221956 -0.00000000  0.00000000       0.056
   0.04443912 -0.00000000  0.00000000       0.056
   0.06665868 -0.00000000  0.00000000       0.028
   0.08887824 -0.00000000  0.00000000       0.056
   0.11109780 -0.00000000  0.00000000       0.056
   0.13331735 -0.00000000  0.00000000       0.014
   0.00000000  0.01595543  0.00000000       0.014
   0.02221956  0.01595543  0.00000000       0.056
   0.04443912  0.01595543  0.00000000       0.056
   0.06665868  0.01595543  0.00000000       0.028
   0.08887824  0.01595543  0.00000000       0.056
   0.11109780  0.01595543  0.00000000       0.056
   0.13331735  0.01595543  0.00000000       0.014
   0.01110978 -0.00000000  0.01924270       0.028
   0.03332934 -0.00000000  0.01924270       0.028
   0.07776846 -0.00000000  0.01924270       0.056
   0.09998802 -0.00000000  0.01924270       0.028
   0.14442713 -0.00000000  0.01924270       0.028
  -0.09998802  0.00000000  0.01924270       0.028
  -0.03332934  0.00000000  0.01924270       0.028
   0.01110978  0.01595543  0.01924270       0.028
   0.03332934  0.01595543  0.01924270       0.028
   0.07776846  0.01595543  0.01924270       0.056
   0.09998802  0.01595543  0.01924270       0.028
   0.14442713  0.01595543  0.01924270       0.028
  -0.09998802  0.01595543  0.01924270       0.028
  -0.03332934  0.01595543  0.01924270       0.028
 
 k-points in reciprocal lattice and weights: k-point density of [50, 50, 50]/[a, b, c
   0.00000000  0.00000000  0.00000000       0.014
   0.08333333  0.00000000  0.00000000       0.056
   0.16666667  0.00000000  0.00000000       0.056
   0.25000000  0.00000000  0.00000000       0.028
   0.33333333  0.00000000  0.00000000       0.056
   0.41666667  0.00000000  0.00000000       0.056
   0.50000000  0.00000000  0.00000000       0.014
   0.00000000  0.50000000  0.00000000       0.014
   0.08333333  0.50000000  0.00000000       0.056
   0.16666667  0.50000000  0.00000000       0.056
   0.25000000  0.50000000  0.00000000       0.028
   0.33333333  0.50000000  0.00000000       0.056
   0.41666667  0.50000000  0.00000000       0.056
   0.50000000  0.50000000  0.00000000       0.014
   0.00000000 -0.00000000  0.33333333       0.028
   0.08333333  0.00000000  0.33333333       0.028
   0.25000000  0.00000000  0.33333333       0.056
   0.33333333  0.00000000  0.33333333       0.028
   0.50000000  0.00000000  0.33333333       0.028
  -0.41666667 -0.00000000  0.33333333       0.028
  -0.16666667 -0.00000000  0.33333333       0.028
   0.00000000  0.50000000  0.33333333       0.028
   0.08333333  0.50000000  0.33333333       0.028
   0.25000000  0.50000000  0.33333333       0.056
   0.33333333  0.50000000  0.33333333       0.028
   0.50000000  0.50000000  0.33333333       0.028
  -0.41666667  0.50000000  0.33333333       0.028
  -0.16666667  0.50000000  0.33333333       0.028
 
 position of ions in fractional coordinates (direct lattice) 
   0.66666700  0.06339322  0.04166662
   0.66666700  0.26994078  0.04166662
   0.00000000  0.39672622  0.20833338
   0.00000000  0.60327378  0.20833338
   0.33333300  0.73005922  0.12500012
   0.33333300  0.93660678  0.12500012
   0.66666700  0.06339322  0.29166662
   0.66666700  0.26994078  0.29166662
   0.00000000  0.39672622  0.45833338
   0.00000000  0.60327378  0.45833338
   0.33333300  0.73005922  0.37500012
   0.33333300  0.93660678  0.37500012
   0.00000000  0.21537671  0.20833338
   0.33333300  0.11795629  0.12500012
   0.00000000  0.00000000  0.20833338
   0.33333300  0.54870971  0.12500012
   0.66666700  0.45129029  0.04166662
   0.33333300  0.33333300  0.12500012
   0.66666700  0.88204371  0.04166662
   0.00000000  0.78462329  0.20833338
   0.66666700  0.66666700  0.04166662
   0.00000000  0.21537671  0.45833338
   0.33333300  0.11795629  0.37500012
   0.00000000  0.00000000  0.45833338
   0.33333300  0.54870971  0.37500012
   0.66666700  0.45129029  0.29166662
   0.33333300  0.33333300  0.37500012
   0.66666700  0.88204371  0.29166662
   0.00000000  0.78462329  0.45833338
   0.66666700  0.66666700  0.29166662
 
 position of ions in cartesian coordinates  (Angst):
   2.50030090  1.98657251 -0.72177575
   2.50030090  8.45921548 -0.72177575
   0.00000000 12.43232916  3.60887238
   0.00000000 18.90497213  3.60887238
   1.25014857 22.87808581  1.44355157
   1.25014857 29.35072878  1.44355157
   2.50030090  1.98657251  3.60887025
   2.50030090  8.45921548  3.60887025
   0.00000000 12.43232916  7.93951838
   0.00000000 18.90497213  7.93951838
   1.25014857 22.87808581  5.77419756
   1.25014857 29.35072878  5.77419756
   0.00000000  6.74932495  3.60887238
   1.25014857  3.69643169  1.44355157
   0.00000000  0.00000000  3.60887238
   1.25014857 17.19508160  1.44355157
   2.50030090 14.14221968 -0.72177575
   1.25014857 10.44575665  1.44355157
   2.50030090 27.64086959 -0.72177575
   0.00000000 24.58797633  3.60887238
   2.50030090 20.89154464 -0.72177575
   0.00000000  6.74932495  7.93951838
   1.25014857  3.69643169  5.77419756
   0.00000000  0.00000000  7.93951838
   1.25014857 17.19508160  5.77419756
   2.50030090 14.14221968  3.60887025
   1.25014857 10.44575665  5.77419756
   2.50030090 27.64086959  3.60887025
   0.00000000 24.58797633  7.93951838
   2.50030090 20.89154464  3.60887025
 


--------------------------------------------------------------------------------------------------------


 k-point  1 :   0.0000 0.0000 0.0000  plane waves:   23991
 k-point  2 :   0.0833 0.0000 0.0000  plane waves:   23953
 k-point  3 :   0.1667 0.0000 0.0000  plane waves:   24000
 k-point  4 :   0.2500 0.0000 0.0000  plane waves:   24058
 k-point  5 :   0.3333 0.0000 0.0000  plane waves:   24063
 k-point  6 :   0.4167 0.0000 0.0000  plane waves:   24062
 k-point  7 :   0.5000 0.0000 0.0000  plane waves:   24156
 k-point  8 :   0.0000 0.5000 0.0000  plane waves:   23888
 k-point  9 :   0.0833 0.5000 0.0000  plane waves:   23960
 k-point 10 :   0.1667 0.5000 0.0000  plane waves:   23966
 k-point 11 :   0.2500 0.5000 0.0000  plane waves:   24020
 k-point 12 :   0.3333 0.5000 0.0000  plane waves:   24070
 k-point 13 :   0.4167 0.5000 0.0000  plane waves:   24100
 k-point 14 :   0.5000 0.5000 0.0000  plane waves:   24112
 k-point 15 :   0.0000-0.0000 0.3333  plane waves:   23962
 k-point 16 :   0.0833 0.0000 0.3333  plane waves:   23956
 k-point 17 :   0.2500 0.0000 0.3333  plane waves:   24018
 k-point 18 :   0.3333 0.0000 0.3333  plane waves:   24008
 k-point 19 :   0.5000 0.0000 0.3333  plane waves:   24080
 k-point 20 :  -0.4167-0.0000 0.3333  plane waves:   24060
 k-point 21 :  -0.1667-0.0000 0.3333  plane waves:   23976
 k-point 22 :   0.0000 0.5000 0.3333  plane waves:   23968
 k-point 23 :   0.0833 0.5000 0.3333  plane waves:   23984
 k-point 24 :   0.2500 0.5000 0.3333  plane waves:   24032
 k-point 25 :   0.3333 0.5000 0.3333  plane waves:   24064
 k-point 26 :   0.5000 0.5000 0.3333  plane waves:   24064
 k-point 27 :  -0.4167 0.5000 0.3333  plane waves:   24060
 k-point 28 :  -0.1667 0.5000 0.3333  plane waves:   23946

 maximum and minimum number of plane-waves per node :      6056     5965

 maximum number of plane-waves:     24156
 maximum index in each direction: 
   IXMAX=    6   IYMAX=   44   IZMAX=   24
   IXMIN=   -6   IYMIN=  -44   IZMIN=  -24


 parallel 3D FFT for wavefunctions:
    minimum data exchange during FFTs selected (reduces bandwidth)
 parallel 3D FFT for charge:
    minimum data exchange during FFTs selected (reduces bandwidth)


 total amount of memory used by VASP MPI-rank0    85025. kBytes
=======================================================================

   base      :      30000. kBytes
   nonl-proj :      38731. kBytes
   fftplans  :       5190. kBytes
   grid      :       8231. kBytes
   one-center:         64. kBytes
   wavefun   :       2809. kBytes
 
     INWAV:  cpu time    0.0000: real time    0.0000
 Broyden mixing: mesh for mixing (old mesh)
   NGX = 13   NGY = 89   NGZ = 49
  (NGX  = 48   NGY  =360   NGZ  =196)
  gives a total of  56693 points

 initial charge density was supplied:
 charge density of overlapping atoms calculated
 number of electron     168.0000000 magnetization 
 keeping initial charge density in first step


--------------------------------------------------------------------------------------------------------


 Maximum index for augmentation-charges          582 (set IRDMAX)


--------------------------------------------------------------------------------------------------------


 First call to EWALD:  gamma=   0.140
 Maximum number of real-space cells 8x 1x 2
 Maximum number of reciprocal cells 1x 6x 4

    FEWALD:  cpu time    0.0026: real time    0.0026


--------------------------------------- Iteration      1(   1)  ---------------------------------------


    POTLOK:  cpu time    0.1125: real time    0.1234
    SETDIJ:  cpu time    0.0041: real time    0.0045
     EDDAV:  cpu time    7.5565: real time    7.5608
       DOS:  cpu time    0.0071: real time    0.0072
    --------------------------------------------
      LOOP:  cpu time    7.6802: real time    7.6960

 eigenvalue-minimisations  :  7168
 total energy-change (2. order) : 0.5903658E+03  (-0.4338951E+04)
 number of electron     168.0000000 magnetization 
 augmentation part      168.0000000 magnetization 

 Free energy of the ion-electron system (eV)
  ---------------------------------------------------
  alpha Z        PSCENC =        -5.40434045
  Ewald energy   TEWEN  =       390.04496514
  -Hartree energ DENC   =     -5796.60783979
  -exchange      EXHF   =         0.00000000
  -V(xc)+E(xc)   XCENC  =     -1066.94378662
  PAW double counting   =      2891.42314479    -1550.38285165
  entropy T*S    EENTRO =        -0.00551176
  eigenvalues    EBANDS =       -88.23130796
  atomic energy  EATOM  =      5816.47334678
  Solvation  Ediel_sol  =         0.00000000
  ---------------------------------------------------
  free energy    TOTEN  =       590.36581846 eV

  energy without entropy =      590.37133022  energy(sigma->0) =      590.36765571


--------------------------------------------------------------------------------------------------------




--------------------------------------- Iteration      1(   2)  ---------------------------------------


     EDDAV:  cpu time   15.6739: real time   15.6863
       DOS:  cpu time    0.0013: real time    0.0013
    --------------------------------------------
      LOOP:  cpu time   15.6752: real time   15.6876

 eigenvalue-minimisations  : 10752
 total energy-change (2. order) :-0.6652210E+03  (-0.6648921E+03)
 number of electron     168.0000000 magnetization 
 augmentation part      168.0000000 magnetization 

 Free energy of the ion-electron system (eV)
  ---------------------------------------------------
  alpha Z        PSCENC =        -5.40434045
  Ewald energy   TEWEN  =       390.04496514
  -Hartree energ DENC   =     -5796.60783979
  -exchange      EXHF   =         0.00000000
  -V(xc)+E(xc)   XCENC  =     -1066.94378662
  PAW double counting   =      2891.42314479    -1550.38285165
  entropy T*S    EENTRO =        -0.00792708
  eigenvalues    EBANDS =      -753.44990259
  atomic energy  EATOM  =      5816.47334678
  Solvation  Ediel_sol  =         0.00000000
  ---------------------------------------------------
  free energy    TOTEN  =       -74.85519149 eV

  energy without entropy =      -74.84726441  energy(sigma->0) =      -74.85254913


--------------------------------------------------------------------------------------------------------




--------------------------------------- Iteration      1(   3)  ---------------------------------------


     EDDAV:  cpu time   28.7689: real time   28.7763
       DOS:  cpu time    0.0017: real time    0.0017
    --------------------------------------------
      LOOP:  cpu time   28.7706: real time   28.7780

 eigenvalue-minimisations  : 14208
 total energy-change (2. order) :-0.2874695E+02  (-0.2867334E+02)
 number of electron     168.0000000 magnetization 
 augmentation part      168.0000000 magnetization 

 Free energy of the ion-electron system (eV)
  ---------------------------------------------------
  alpha Z        PSCENC =        -5.40434045
  Ewald energy   TEWEN  =       390.04496514
  -Hartree energ DENC   =     -5796.60783979
  -exchange      EXHF   =         0.00000000
  -V(xc)+E(xc)   XCENC  =     -1066.94378662
  PAW double counting   =      2891.42314479    -1550.38285165
  entropy T*S    EENTRO =         0.03497317
  eigenvalues    EBANDS =      -782.23975289
  atomic energy  EATOM  =      5816.47334678
  Solvation  Ediel_sol  =         0.00000000
  ---------------------------------------------------
  free energy    TOTEN  =      -103.60214154 eV

  energy without entropy =     -103.63711471  energy(sigma->0) =     -103.61379926


--------------------------------------------------------------------------------------------------------




--------------------------------------- Iteration      1(   4)  ---------------------------------------


     EDDAV:  cpu time   10.7667: real time   10.7766
       DOS:  cpu time    0.0016: real time    0.0016
    --------------------------------------------
      LOOP:  cpu time   10.7683: real time   10.7782

 eigenvalue-minimisations  :  8576
 total energy-change (2. order) :-0.5698360E-01  (-0.5698277E-01)
 number of electron     168.0000000 magnetization 
 augmentation part      168.0000000 magnetization 

 Free energy of the ion-electron system (eV)
  ---------------------------------------------------
  alpha Z        PSCENC =        -5.40434045
  Ewald energy   TEWEN  =       390.04496514
  -Hartree energ DENC   =     -5796.60783979
  -exchange      EXHF   =         0.00000000
  -V(xc)+E(xc)   XCENC  =     -1066.94378662
  PAW double counting   =      2891.42314479    -1550.38285165
  entropy T*S    EENTRO =         0.03524947
  eigenvalues    EBANDS =      -782.29701279
  atomic energy  EATOM  =      5816.47334678
  Solvation  Ediel_sol  =         0.00000000
  ---------------------------------------------------
  free energy    TOTEN  =      -103.65912514 eV

  energy without entropy =     -103.69437461  energy(sigma->0) =     -103.67087496


--------------------------------------------------------------------------------------------------------




--------------------------------------- Iteration      1(   5)  ---------------------------------------


     EDDAV:  cpu time   29.1893: real time   29.2037
       DOS:  cpu time    0.0017: real time    0.0017
    CHARGE:  cpu time    0.1087: real time    0.1099
    MIXING:  cpu time    0.0187: real time    0.0192
    --------------------------------------------
      LOOP:  cpu time   29.3183: real time   29.3344

 eigenvalue-minimisations  : 14336
 total energy-change (2. order) :-0.1183638E-02  (-0.1183638E-02)
 number of electron     167.9999963 magnetization 
 augmentation part      -31.3597847 magnetization 

 Broyden mixing:
  rms(total) = 0.76446E+00    rms(broyden)= 0.76442E+00
  rms(prec ) = 0.95392E+00
  weight for this iteration     100.00

 Free energy of the ion-electron system (eV)
  ---------------------------------------------------
  alpha Z        PSCENC =        -5.40434045
  Ewald energy   TEWEN  =       390.04496514
  -Hartree energ DENC   =     -5796.60783979
  -exchange      EXHF   =         0.00000000
  -V(xc)+E(xc)   XCENC  =     -1066.94378662
  PAW double counting   =      2891.42314479    -1550.38285165
  entropy T*S    EENTRO =         0.03525221
  eigenvalues    EBANDS =      -782.29819917
  atomic energy  EATOM  =      5816.47334678
  Solvation  Ediel_sol  =         0.00000000
  ---------------------------------------------------
  free energy    TOTEN  =      -103.66030878 eV

  energy without entropy =     -103.69556099  energy(sigma->0) =     -103.67205951


--------------------------------------------------------------------------------------------------------




--------------------------------------- Iteration      1(   6)  ---------------------------------------


    POTLOK:  cpu time    0.0842: real time    0.0914
    SETDIJ:  cpu time    0.0025: real time    0.0025
    EDDIAG:  cpu time   21.1874: real time   21.2611
  RMM-DIIS:  cpu time    1.2331: real time    1.2343
    ORTHCH:  cpu time    0.1799: real time    0.1799
       DOS:  cpu time    0.0010: real time    0.0010
    CHARGE:  cpu time    0.1082: real time    0.1082
    MIXING:  cpu time    0.0028: real time    0.0033
    --------------------------------------------
      LOOP:  cpu time   22.7993: real time   22.8818

 eigenvalue-minimisations  :  7168
 total energy-change (2. order) : 0.8108960E+00  (-0.5397013E+00)
 number of electron     167.9999965 magnetization 
 augmentation part      -30.9672349 magnetization 

 Broyden mixing:
  rms(total) = 0.65462E+00    rms(broyden)= 0.65461E+00
  rms(prec ) = 0.89885E+00
  weight for this iteration     100.00

 eigenvalues of (default mixing * dielectric matrix)
  average eigenvalue GAMMA=   0.5658
  0.5658

 Free energy of the ion-electron system (eV)
  ---------------------------------------------------
  alpha Z        PSCENC =        -5.40434045
  Ewald energy   TEWEN  =       390.04496514
  -Hartree energ DENC   =     -5807.21555946
  -exchange      EXHF   =         0.00000000
  -V(xc)+E(xc)   XCENC  =     -1065.53342276
  PAW double counting   =      2940.49112911    -1600.01989139
  entropy T*S    EENTRO =         0.02892697
  eigenvalues    EBANDS =      -771.71456670
  atomic energy  EATOM  =      5816.47334678
  Solvation  Ediel_sol  =         0.00000000
  ---------------------------------------------------
  free energy    TOTEN  =      -102.84941276 eV

  energy without entropy =     -102.87833973  energy(sigma->0) =     -102.85905508


--------------------------------------------------------------------------------------------------------




--------------------------------------- Iteration      1(   7)  ---------------------------------------


    POTLOK:  cpu time    0.0829: real time    0.0900
    SETDIJ:  cpu time    0.0026: real time    0.0026
    EDDIAG:  cpu time    1.1619: real time    1.1622
  RMM-DIIS:  cpu time    1.2306: real time    1.2311
    ORTHCH:  cpu time    0.1744: real time    0.1745
       DOS:  cpu time    0.0012: real time    0.0012
    CHARGE:  cpu time    0.1070: real time    0.1071
    MIXING:  cpu time    0.0014: real time    0.0014
    --------------------------------------------
      LOOP:  cpu time    2.7620: real time    2.7700

 eigenvalue-minimisations  :  7168
 total energy-change (2. order) : 0.1811457E+01  (-0.1158123E+00)
 number of electron     167.9999964 magnetization 
 augmentation part      -31.1163766 magnetization 

 Broyden mixing:
  rms(total) = 0.33872E+00    rms(broyden)= 0.33871E+00
  rms(prec ) = 0.62176E+00
  weight for this iteration     100.00

 eigenvalues of (default mixing * dielectric matrix)
  average eigenvalue GAMMA=   0.6451
  0.8401  0.4500

 Free energy of the ion-electron system (eV)
  ---------------------------------------------------
  alpha Z        PSCENC =        -5.40434045
  Ewald energy   TEWEN  =       390.04496514
  -Hartree energ DENC   =     -5807.44656932
  -exchange      EXHF   =         0.00000000
  -V(xc)+E(xc)   XCENC  =     -1065.65662422
  PAW double counting   =      2933.29309435    -1592.75377702
  entropy T*S    EENTRO =        -0.03665041
  eigenvalues    EBANDS =      -769.55140081
  atomic energy  EATOM  =      5816.47334678
  Solvation  Ediel_sol  =         0.00000000
  ---------------------------------------------------
  free energy    TOTEN  =      -101.03795596 eV

  energy without entropy =     -101.00130555  energy(sigma->0) =     -101.02573916


--------------------------------------------------------------------------------------------------------




--------------------------------------- Iteration      1(   8)  ---------------------------------------


    POTLOK:  cpu time    0.0907: real time    0.0910
    SETDIJ:  cpu time    0.0026: real time    0.0026
    EDDIAG:  cpu time    1.1313: real time    1.1316
  RMM-DIIS:  cpu time    1.2669: real time    1.2673
    ORTHCH:  cpu time    0.1712: real time    0.1712
       DOS:  cpu time    0.0011: real time    0.0011
    CHARGE:  cpu time    0.1061: real time    0.1061
    MIXING:  cpu time    0.0014: real time    0.0014
    --------------------------------------------
      LOOP:  cpu time    2.7713: real time    2.7724

 eigenvalue-minimisations  :  7168
 total energy-change (2. order) : 0.2917918E+00  (-0.2201737E-01)
 number of electron     167.9999964 magnetization 
 augmentation part      -31.0522091 magnetization 

 Broyden mixing:
  rms(total) = 0.28922E+00    rms(broyden)= 0.28922E+00
  rms(prec ) = 0.49269E+00
  weight for this iteration     100.00

 eigenvalues of (default mixing * dielectric matrix)
  average eigenvalue GAMMA=   0.7129
  1.4559  0.5050  0.1778

 Free energy of the ion-electron system (eV)
  ---------------------------------------------------
  alpha Z        PSCENC =        -5.40434045
  Ewald energy   TEWEN  =       390.04496514
  -Hartree energ DENC   =     -5808.90943206
  -exchange      EXHF   =         0.00000000
  -V(xc)+E(xc)   XCENC  =     -1065.54999581
  PAW double counting   =      2934.82512520    -1594.30420619
  entropy T*S    EENTRO =        -0.00412625
  eigenvalues    EBANDS =      -767.91750053
  atomic energy  EATOM  =      5816.47334678
  Solvation  Ediel_sol  =         0.00000000
  ---------------------------------------------------
  free energy    TOTEN  =      -100.74616417 eV

  energy without entropy =     -100.74203792  energy(sigma->0) =     -100.74478875


--------------------------------------------------------------------------------------------------------




--------------------------------------- Iteration      1(   9)  ---------------------------------------


    POTLOK:  cpu time    0.0804: real time    0.0882
    SETDIJ:  cpu time    0.0026: real time    0.0026
    EDDIAG:  cpu time    1.1438: real time    1.1440
  RMM-DIIS:  cpu time    1.2293: real time    1.2304
    ORTHCH:  cpu time    0.1731: real time    0.1731
       DOS:  cpu time    0.0011: real time    0.0011
    CHARGE:  cpu time    0.1070: real time    0.1070
    MIXING:  cpu time    0.0015: real time    0.0015
    --------------------------------------------
      LOOP:  cpu time    2.7387: real time    2.7479

 eigenvalue-minimisations  :  7168
 total energy-change (2. order) : 0.3712212E+00  (-0.1312091E-01)
 number of electron     167.9999964 magnetization 
 augmentation part      -31.1192392 magnetization 

 Broyden mixing:
  rms(total) = 0.13848E+00    rms(broyden)= 0.13848E+00
  rms(prec ) = 0.15935E+00
  weight for this iteration     100.00

 eigenvalues of (default mixing * dielectric matrix)
  average eigenvalue GAMMA=   0.9759
  2.5192  0.7540  0.4578  0.1724

 Free energy of the ion-electron system (eV)
  ---------------------------------------------------
  alpha Z        PSCENC =        -5.40434045
  Ewald energy   TEWEN  =       390.04496514
  -Hartree energ DENC   =     -5810.88831252
  -exchange      EXHF   =         0.00000000
  -V(xc)+E(xc)   XCENC  =     -1065.22786375
  PAW double counting   =      2938.56179884    -1598.07931203
  entropy T*S    EENTRO =         0.00612118
  eigenvalues    EBANDS =      -765.86134614
  atomic energy  EATOM  =      5816.47334678
  Solvation  Ediel_sol  =         0.00000000
  ---------------------------------------------------
  free energy    TOTEN  =      -100.37494295 eV

  energy without entropy =     -100.38106413  energy(sigma->0) =     -100.37698335


--------------------------------------------------------------------------------------------------------




--------------------------------------- Iteration      1(  10)  ---------------------------------------


    POTLOK:  cpu time    0.0798: real time    0.0853
    SETDIJ:  cpu time    0.0026: real time    0.0026
    EDDIAG:  cpu time    1.1308: real time    1.1311
  RMM-DIIS:  cpu time    1.2351: real time    1.2356
    ORTHCH:  cpu time    0.1792: real time    0.1792
       DOS:  cpu time    0.0010: real time    0.0010
    CHARGE:  cpu time    0.1064: real time    0.1064
    MIXING:  cpu time    0.0015: real time    0.0015
    --------------------------------------------
      LOOP:  cpu time    2.7364: real time    2.7427

 eigenvalue-minimisations  :  7168
 total energy-change (2. order) : 0.3805206E-01  (-0.8752487E-02)
 number of electron     167.9999964 magnetization 
 augmentation part      -31.1374056 magnetization 

 Broyden mixing:
  rms(total) = 0.35311E-01    rms(broyden)= 0.35310E-01
  rms(prec ) = 0.49243E-01
  weight for this iteration     100.00

 eigenvalues of (default mixing * dielectric matrix)
  average eigenvalue GAMMA=   0.9659
  2.5729  0.9673  0.6536  0.4615  0.1742

 Free energy of the ion-electron system (eV)
  ---------------------------------------------------
  alpha Z        PSCENC =        -5.40434045
  Ewald energy   TEWEN  =       390.04496514
  -Hartree energ DENC   =     -5815.43600797
  -exchange      EXHF   =         0.00000000
  -V(xc)+E(xc)   XCENC  =     -1064.77988350
  PAW double counting   =      2943.98801119    -1603.56731860
  entropy T*S    EENTRO =         0.01349880
  eigenvalues    EBANDS =      -761.66916227
  atomic energy  EATOM  =      5816.47334678
  Solvation  Ediel_sol  =         0.00000000
  ---------------------------------------------------
  free energy    TOTEN  =      -100.33689089 eV

  energy without entropy =     -100.35038969  energy(sigma->0) =     -100.34139049


--------------------------------------------------------------------------------------------------------




--------------------------------------- Iteration      1(  11)  ---------------------------------------


    POTLOK:  cpu time    0.0798: real time    0.0863
    SETDIJ:  cpu time    0.0026: real time    0.0026
    EDDIAG:  cpu time    1.1413: real time    1.1416
  RMM-DIIS:  cpu time    1.3740: real time    1.3745
    ORTHCH:  cpu time    0.1713: real time    0.1715
       DOS:  cpu time    0.0011: real time    0.0011
    CHARGE:  cpu time    0.1069: real time    0.1069
    MIXING:  cpu time    0.0015: real time    0.0015
    --------------------------------------------
      LOOP:  cpu time    2.8786: real time    2.8861

 eigenvalue-minimisations  :  7181
 total energy-change (2. order) : 0.3906455E-02  (-0.8028853E-03)
 number of electron     167.9999964 magnetization 
 augmentation part      -31.1375244 magnetization 

 Broyden mixing:
  rms(total) = 0.17833E-01    rms(broyden)= 0.17833E-01
  rms(prec ) = 0.21453E-01
  weight for this iteration     100.00

 eigenvalues of (default mixing * dielectric matrix)
  average eigenvalue GAMMA=   0.9799
  2.5822  1.1692  0.1742  0.4538  0.6779  0.8218

 Free energy of the ion-electron system (eV)
  ---------------------------------------------------
  alpha Z        PSCENC =        -5.40434045
  Ewald energy   TEWEN  =       390.04496514
  -Hartree energ DENC   =     -5816.73384190
  -exchange      EXHF   =         0.00000000
  -V(xc)+E(xc)   XCENC  =     -1064.73818748
  PAW double counting   =      2943.79465357    -1603.38088018
  entropy T*S    EENTRO =         0.01280872
  eigenvalues    EBANDS =      -760.40150862
  atomic energy  EATOM  =      5816.47334678
  Solvation  Ediel_sol  =         0.00000000
  ---------------------------------------------------
  free energy    TOTEN  =      -100.33298444 eV

  energy without entropy =     -100.34579315  energy(sigma->0) =     -100.33725401


--------------------------------------------------------------------------------------------------------




--------------------------------------- Iteration      1(  12)  ---------------------------------------


    POTLOK:  cpu time    0.0800: real time    0.0878
    SETDIJ:  cpu time    0.0027: real time    0.0027
    EDDIAG:  cpu time    1.1315: real time    1.1317
  RMM-DIIS:  cpu time    1.5465: real time    1.5471
    ORTHCH:  cpu time    0.1727: real time    0.1727
       DOS:  cpu time    0.0010: real time    0.0010
    CHARGE:  cpu time    0.1078: real time    0.1079
    MIXING:  cpu time    0.0016: real time    0.0016
    --------------------------------------------
      LOOP:  cpu time    3.0438: real time    3.0524

 eigenvalue-minimisations  :  7233
 total energy-change (2. order) :-0.1610120E-02  (-0.1470679E-03)
 number of electron     167.9999964 magnetization 
 augmentation part      -31.1377245 magnetization 

 Broyden mixing:
  rms(total) = 0.14038E-01    rms(broyden)= 0.14038E-01
  rms(prec ) = 0.22545E-01
  weight for this iteration     100.00

 eigenvalues of (default mixing * dielectric matrix)
  average eigenvalue GAMMA=   0.9650
  2.5994  1.3619  0.1742  0.8114  0.8114  0.4579  0.5385

 Free energy of the ion-electron system (eV)
  ---------------------------------------------------
  alpha Z        PSCENC =        -5.40434045
  Ewald energy   TEWEN  =       390.04496514
  -Hartree energ DENC   =     -5817.56409152
  -exchange      EXHF   =         0.00000000
  -V(xc)+E(xc)   XCENC  =     -1064.72010965
  PAW double counting   =      2943.12919819    -1602.71654780
  entropy T*S    EENTRO =         0.01382556
  eigenvalues    EBANDS =      -759.59084080
  atomic energy  EATOM  =      5816.47334678
  Solvation  Ediel_sol  =         0.00000000
  ---------------------------------------------------
  free energy    TOTEN  =      -100.33459456 eV

  energy without entropy =     -100.34842011  energy(sigma->0) =     -100.33920308


--------------------------------------------------------------------------------------------------------




--------------------------------------- Iteration      1(  13)  ---------------------------------------


    POTLOK:  cpu time    0.0804: real time    0.0871
    SETDIJ:  cpu time    0.0026: real time    0.0026
    EDDIAG:  cpu time    1.1387: real time    1.1392
  RMM-DIIS:  cpu time    1.4433: real time    1.4439
    ORTHCH:  cpu time    0.1748: real time    0.1749
       DOS:  cpu time    0.0012: real time    0.0012
    CHARGE:  cpu time    0.1072: real time    0.1072
    MIXING:  cpu time    0.0016: real time    0.0016
    --------------------------------------------
      LOOP:  cpu time    2.9498: real time    2.9577

 eigenvalue-minimisations  :  7248
 total energy-change (2. order) :-0.1195904E-02  (-0.4954735E-04)
 number of electron     167.9999964 magnetization 
 augmentation part      -31.1378712 magnetization 

 Broyden mixing:
  rms(total) = 0.16846E-01    rms(broyden)= 0.16846E-01
  rms(prec ) = 0.30696E-01
  weight for this iteration     100.00

 eigenvalues of (default mixing * dielectric matrix)
  average eigenvalue GAMMA=   0.9992
  2.6807  2.0644  0.9641  0.8762  0.6218  0.4557  0.1742  0.1565

 Free energy of the ion-electron system (eV)
  ---------------------------------------------------
  alpha Z        PSCENC =        -5.40434045
  Ewald energy   TEWEN  =       390.04496514
  -Hartree energ DENC   =     -5817.88969984
  -exchange      EXHF   =         0.00000000
  -V(xc)+E(xc)   XCENC  =     -1064.71326390
  PAW double counting   =      2942.91120824    -1602.49859511
  entropy T*S    EENTRO =         0.01382278
  eigenvalues    EBANDS =      -759.27323410
  atomic energy  EATOM  =      5816.47334678
  Solvation  Ediel_sol  =         0.00000000
  ---------------------------------------------------
  free energy    TOTEN  =      -100.33579046 eV

  energy without entropy =     -100.34961324  energy(sigma->0) =     -100.34039806


--------------------------------------------------------------------------------------------------------




--------------------------------------- Iteration      1(  14)  ---------------------------------------


    POTLOK:  cpu time    0.0834: real time    0.0903
    SETDIJ:  cpu time    0.0027: real time    0.0027
    EDDIAG:  cpu time    1.1384: real time    1.1387
  RMM-DIIS:  cpu time    1.2288: real time    1.2293
    ORTHCH:  cpu time    0.1722: real time    0.1722
       DOS:  cpu time    0.0011: real time    0.0011
    CHARGE:  cpu time    0.1090: real time    0.1091
    MIXING:  cpu time    0.0016: real time    0.0016
    --------------------------------------------
      LOOP:  cpu time    2.7372: real time    2.7450

 eigenvalue-minimisations  :  7168
 total energy-change (2. order) :-0.1167509E-03  (-0.9175933E-04)
 number of electron     167.9999964 magnetization 
 augmentation part      -31.1368424 magnetization 

 Broyden mixing:
  rms(total) = 0.49595E-02    rms(broyden)= 0.49593E-02
  rms(prec ) = 0.66538E-02
  weight for this iteration     100.00

 eigenvalues of (default mixing * dielectric matrix)
  average eigenvalue GAMMA=   1.0586
  2.9011  2.4741  1.0127  1.0127  0.4550  0.7153  0.6286  0.1742  0.1539

 Free energy of the ion-electron system (eV)
  ---------------------------------------------------
  alpha Z        PSCENC =        -5.40434045
  Ewald energy   TEWEN  =       390.04496514
  -Hartree energ DENC   =     -5818.94795150
  -exchange      EXHF   =         0.00000000
  -V(xc)+E(xc)   XCENC  =     -1064.69135659
  PAW double counting   =      2942.20873875    -1601.79569833
  entropy T*S    EENTRO =         0.01370630
  eigenvalues    EBANDS =      -758.23731731
  atomic energy  EATOM  =      5816.47334678
  Solvation  Ediel_sol  =         0.00000000
  ---------------------------------------------------
  free energy    TOTEN  =      -100.33590721 eV

  energy without entropy =     -100.34961351  energy(sigma->0) =     -100.34047598


--------------------------------------------------------------------------------------------------------




--------------------------------------- Iteration      1(  15)  ---------------------------------------


    POTLOK:  cpu time    0.0853: real time    0.0904
    SETDIJ:  cpu time    0.0027: real time    0.0027
    EDDIAG:  cpu time    1.1394: real time    1.1396
  RMM-DIIS:  cpu time    1.2358: real time    1.2362
    ORTHCH:  cpu time    0.1728: real time    0.1728
       DOS:  cpu time    0.0011: real time    0.0011
    CHARGE:  cpu time    0.1084: real time    0.1084
    MIXING:  cpu time    0.0019: real time    0.0019
    --------------------------------------------
      LOOP:  cpu time    2.7473: real time    2.7531

 eigenvalue-minimisations  :  7168
 total energy-change (2. order) :-0.8774430E-03  (-0.4651078E-04)
 number of electron     167.9999964 magnetization 
 augmentation part      -31.1358108 magnetization 

 Broyden mixing:
  rms(total) = 0.29371E-02    rms(broyden)= 0.29371E-02
  rms(prec ) = 0.40944E-02
  weight for this iteration     100.00

 eigenvalues of (default mixing * dielectric matrix)
  average eigenvalue GAMMA=   1.0940
  3.0971  2.5463  1.2055  1.2055  0.8090  0.4552  0.6828  0.6102  0.1742  0.1541

 Free energy of the ion-electron system (eV)
  ---------------------------------------------------
  alpha Z        PSCENC =        -5.40434045
  Ewald energy   TEWEN  =       390.04496514
  -Hartree energ DENC   =     -5819.73111588
  -exchange      EXHF   =         0.00000000
  -V(xc)+E(xc)   XCENC  =     -1064.67778713
  PAW double counting   =      2941.68353143    -1601.26766481
  entropy T*S    EENTRO =         0.01359392
  eigenvalues    EBANDS =      -757.47131366
  atomic energy  EATOM  =      5816.47334678
  Solvation  Ediel_sol  =         0.00000000
  ---------------------------------------------------
  free energy    TOTEN  =      -100.33678466 eV

  energy without entropy =     -100.35037858  energy(sigma->0) =     -100.34131596


--------------------------------------------------------------------------------------------------------




--------------------------------------- Iteration      1(  16)  ---------------------------------------


    POTLOK:  cpu time    0.0796: real time    0.0865
    SETDIJ:  cpu time    0.0026: real time    0.0026
    EDDIAG:  cpu time    1.1455: real time    1.1458
  RMM-DIIS:  cpu time    1.2273: real time    1.2278
    ORTHCH:  cpu time    0.1724: real time    0.1724
       DOS:  cpu time    0.0011: real time    0.0011
    CHARGE:  cpu time    0.1109: real time    0.1109
    MIXING:  cpu time    0.0017: real time    0.0017
    --------------------------------------------
      LOOP:  cpu time    2.7410: real time    2.7487

 eigenvalue-minimisations  :  7168
 total energy-change (2. order) :-0.4700962E-03  (-0.1395216E-04)
 number of electron     167.9999964 magnetization 
 augmentation part      -31.1353249 magnetization 

 Broyden mixing:
  rms(total) = 0.26441E-02    rms(broyden)= 0.26441E-02
  rms(prec ) = 0.38453E-02
  weight for this iteration     100.00

 eigenvalues of (default mixing * dielectric matrix)
  average eigenvalue GAMMA=   1.1119
  3.3716  2.6022  1.7934  1.0260  0.8946  0.7233  0.6169  0.1742  0.4552  0.4192
  0.1542

 Free energy of the ion-electron system (eV)
  ---------------------------------------------------
  alpha Z        PSCENC =        -5.40434045
  Ewald energy   TEWEN  =       390.04496514
  -Hartree energ DENC   =     -5820.14092981
  -exchange      EXHF   =         0.00000000
  -V(xc)+E(xc)   XCENC  =     -1064.67023880
  PAW double counting   =      2941.50403927    -1601.08546349
  entropy T*S    EENTRO =         0.01368094
  eigenvalues    EBANDS =      -757.07231433
  atomic energy  EATOM  =      5816.47334678
  Solvation  Ediel_sol  =         0.00000000
  ---------------------------------------------------
  free energy    TOTEN  =      -100.33725475 eV

  energy without entropy =     -100.35093569  energy(sigma->0) =     -100.34181507


--------------------------------------------------------------------------------------------------------




--------------------------------------- Iteration      1(  17)  ---------------------------------------


    POTLOK:  cpu time    0.0820: real time    0.0875
    SETDIJ:  cpu time    0.0026: real time    0.0026
    EDDIAG:  cpu time    1.1782: real time    1.1785
  RMM-DIIS:  cpu time    1.2330: real time    1.2336
    ORTHCH:  cpu time    0.1717: real time    0.1717
       DOS:  cpu time    0.0010: real time    0.0010
    CHARGE:  cpu time    0.1094: real time    0.1095
    MIXING:  cpu time    0.0017: real time    0.0017
    --------------------------------------------
      LOOP:  cpu time    2.7796: real time    2.7861

 eigenvalue-minimisations  :  7164
 total energy-change (2. order) :-0.3342245E-03  (-0.8528512E-05)
 number of electron     167.9999964 magnetization 
 augmentation part      -31.1349921 magnetization 

 Broyden mixing:
  rms(total) = 0.13309E-02    rms(broyden)= 0.13309E-02
  rms(prec ) = 0.19044E-02
  weight for this iteration     100.00

 eigenvalues of (default mixing * dielectric matrix)
  average eigenvalue GAMMA=   1.2023
  4.1054  2.7158  2.1975  1.0543  1.0543  0.8634  0.6682  0.6245  0.4551  0.1742
  0.3604  0.1542

 Free energy of the ion-electron system (eV)
  ---------------------------------------------------
  alpha Z        PSCENC =        -5.40434045
  Ewald energy   TEWEN  =       390.04496514
  -Hartree energ DENC   =     -5820.48939996
  -exchange      EXHF   =         0.00000000
  -V(xc)+E(xc)   XCENC  =     -1064.66355339
  PAW double counting   =      2941.37906758    -1600.95797362
  entropy T*S    EENTRO =         0.01368592
  eigenvalues    EBANDS =      -756.73338697
  atomic energy  EATOM  =      5816.47334678
  Solvation  Ediel_sol  =         0.00000000
  ---------------------------------------------------
  free energy    TOTEN  =      -100.33758898 eV

  energy without entropy =     -100.35127490  energy(sigma->0) =     -100.34215095


--------------------------------------------------------------------------------------------------------




--------------------------------------- Iteration      1(  18)  ---------------------------------------


    POTLOK:  cpu time    0.0816: real time    0.0885
    SETDIJ:  cpu time    0.0026: real time    0.0027
    EDDIAG:  cpu time    1.1392: real time    1.1395
  RMM-DIIS:  cpu time    1.2070: real time    1.2079
    ORTHCH:  cpu time    0.1720: real time    0.1720
       DOS:  cpu time    0.0012: real time    0.0012
    CHARGE:  cpu time    0.1095: real time    0.1097
    MIXING:  cpu time    0.0018: real time    0.0018
    --------------------------------------------
      LOOP:  cpu time    2.7149: real time    2.7232

 eigenvalue-minimisations  :  7076
 total energy-change (2. order) :-0.3281870E-03  (-0.7502848E-05)
 number of electron     167.9999964 magnetization 
 augmentation part      -31.1348281 magnetization 

 Broyden mixing:
  rms(total) = 0.70684E-03    rms(broyden)= 0.70684E-03
  rms(prec ) = 0.94327E-03
  weight for this iteration     100.00

 eigenvalues of (default mixing * dielectric matrix)
  average eigenvalue GAMMA=   1.2507
  4.5460  2.8172  2.2652  1.4563  1.0308  0.9121  0.8008  0.6695  0.6183  0.4552
  0.1742  0.3588  0.1542

 Free energy of the ion-electron system (eV)
  ---------------------------------------------------
  alpha Z        PSCENC =        -5.40434045
  Ewald energy   TEWEN  =       390.04496514
  -Hartree energ DENC   =     -5820.81404359
  -exchange      EXHF   =         0.00000000
  -V(xc)+E(xc)   XCENC  =     -1064.65727738
  PAW double counting   =      2941.29770987    -1600.87430647
  entropy T*S    EENTRO =         0.01355292
  eigenvalues    EBANDS =      -756.41752399
  atomic energy  EATOM  =      5816.47334678
  Solvation  Ediel_sol  =         0.00000000
  ---------------------------------------------------
  free energy    TOTEN  =      -100.33791716 eV

  energy without entropy =     -100.35147009  energy(sigma->0) =     -100.34243480


--------------------------------------------------------------------------------------------------------




--------------------------------------- Iteration      1(  19)  ---------------------------------------


    POTLOK:  cpu time    0.0853: real time    0.0912
    SETDIJ:  cpu time    0.0026: real time    0.0026
    EDDIAG:  cpu time    1.1307: real time    1.1309
  RMM-DIIS:  cpu time    1.1685: real time    1.1688
    ORTHCH:  cpu time    0.1726: real time    0.1726
       DOS:  cpu time    0.0011: real time    0.0011
    CHARGE:  cpu time    0.1080: real time    0.1081
    MIXING:  cpu time    0.0018: real time    0.0018
    --------------------------------------------
      LOOP:  cpu time    2.6707: real time    2.6771

 eigenvalue-minimisations  :  6448
 total energy-change (2. order) :-0.1266331E-03  (-0.2415783E-05)
 number of electron     167.9999964 magnetization 
 augmentation part      -31.1348341 magnetization 

 Broyden mixing:
  rms(total) = 0.41722E-03    rms(broyden)= 0.41722E-03
  rms(prec ) = 0.57363E-03
  weight for this iteration     100.00

 eigenvalues of (default mixing * dielectric matrix)
  average eigenvalue GAMMA=   1.3554
  5.1786  3.1293  2.5727  1.8923  1.0839  0.9794  0.9794  0.7396  0.6640  0.6143
  0.4552  0.1742  0.3585  0.1542

 Free energy of the ion-electron system (eV)
  ---------------------------------------------------
  alpha Z        PSCENC =        -5.40434045
  Ewald energy   TEWEN  =       390.04496514
  -Hartree energ DENC   =     -5820.93621376
  -exchange      EXHF   =         0.00000000
  -V(xc)+E(xc)   XCENC  =     -1064.65539288
  PAW double counting   =      2941.30365411    -1600.87987779
  entropy T*S    EENTRO =         0.01360597
  eigenvalues    EBANDS =      -756.29779092
  atomic energy  EATOM  =      5816.47334678
  Solvation  Ediel_sol  =         0.00000000
  ---------------------------------------------------
  free energy    TOTEN  =      -100.33804380 eV

  energy without entropy =     -100.35164977  energy(sigma->0) =     -100.34257912


--------------------------------------------------------------------------------------------------------




--------------------------------------- Iteration      1(  20)  ---------------------------------------


    POTLOK:  cpu time    0.0807: real time    0.0886
    SETDIJ:  cpu time    0.0026: real time    0.0026
    EDDIAG:  cpu time    1.1995: real time    1.1997
  RMM-DIIS:  cpu time    1.1793: real time    1.1801
    ORTHCH:  cpu time    0.1812: real time    0.1813
       DOS:  cpu time    0.0011: real time    0.0011
    CHARGE:  cpu time    0.1075: real time    0.1075
    MIXING:  cpu time    0.0060: real time    0.0060
    --------------------------------------------
      LOOP:  cpu time    2.7581: real time    2.7670

 eigenvalue-minimisations  :  6344
 total energy-change (2. order) :-0.7357161E-04  (-0.1922846E-05)
 number of electron     167.9999964 magnetization 
 augmentation part      -31.1348336 magnetization 

 Broyden mixing:
  rms(total) = 0.20060E-03    rms(broyden)= 0.20060E-03
  rms(prec ) = 0.27846E-03
  weight for this iteration     100.00

 eigenvalues of (default mixing * dielectric matrix)
  average eigenvalue GAMMA=   1.3954
  5.5585  3.2769  2.6254  1.9860  1.4009  1.0777  0.9215  0.9215  0.7477  0.6567
  0.6158  0.4552  0.1742  0.1542  0.3585

 Free energy of the ion-electron system (eV)
  ---------------------------------------------------
  alpha Z        PSCENC =        -5.40434045
  Ewald energy   TEWEN  =       390.04496514
  -Hartree energ DENC   =     -5821.04830506
  -exchange      EXHF   =         0.00000000
  -V(xc)+E(xc)   XCENC  =     -1064.65359633
  PAW double counting   =      2941.33884514    -1600.91525751
  entropy T*S    EENTRO =         0.01359609
  eigenvalues    EBANDS =      -756.18737116
  atomic energy  EATOM  =      5816.47334678
  Solvation  Ediel_sol  =         0.00000000
  ---------------------------------------------------
  free energy    TOTEN  =      -100.33811737 eV

  energy without entropy =     -100.35171346  energy(sigma->0) =     -100.34264940


--------------------------------------------------------------------------------------------------------




--------------------------------------- Iteration      1(  21)  ---------------------------------------


    POTLOK:  cpu time    0.0811: real time    0.0869
    SETDIJ:  cpu time    0.0027: real time    0.0027
    EDDIAG:  cpu time    1.1384: real time    1.1386
  RMM-DIIS:  cpu time    1.1575: real time    1.1580
    ORTHCH:  cpu time    0.1790: real time    0.1790
       DOS:  cpu time    0.0011: real time    0.0011
    CHARGE:  cpu time    0.1086: real time    0.1086
    MIXING:  cpu time    0.0019: real time    0.0019
    --------------------------------------------
      LOOP:  cpu time    2.6703: real time    2.6768

 eigenvalue-minimisations  :  5424
 total energy-change (2. order) :-0.1371296E-04  (-0.3423113E-06)
 number of electron     167.9999964 magnetization 
 augmentation part      -31.1348224 magnetization 

 Broyden mixing:
  rms(total) = 0.12633E-03    rms(broyden)= 0.12633E-03
  rms(prec ) = 0.18033E-03
  weight for this iteration     100.00

 eigenvalues of (default mixing * dielectric matrix)
  average eigenvalue GAMMA=   1.4458
  5.8774  3.5159  2.6921  2.3164  1.7594  1.1162  0.9556  0.9556  0.7621  0.7621
  0.6612  0.6167  0.4552  0.1742  0.1542  0.3585

 Free energy of the ion-electron system (eV)
  ---------------------------------------------------
  alpha Z        PSCENC =        -5.40434045
  Ewald energy   TEWEN  =       390.04496514
  -Hartree energ DENC   =     -5821.08626729
  -exchange      EXHF   =         0.00000000
  -V(xc)+E(xc)   XCENC  =     -1064.65323088
  PAW double counting   =      2941.34347440    -1600.92008815
  entropy T*S    EENTRO =         0.01358670
  eigenvalues    EBANDS =      -756.14957732
  atomic energy  EATOM  =      5816.47334678
  Solvation  Ediel_sol  =         0.00000000
  ---------------------------------------------------
  free energy    TOTEN  =      -100.33813108 eV

  energy without entropy =     -100.35171779  energy(sigma->0) =     -100.34265998


--------------------------------------------------------------------------------------------------------




--------------------------------------- Iteration      1(  22)  ---------------------------------------


    POTLOK:  cpu time    0.0860: real time    0.0863
    SETDIJ:  cpu time    0.0026: real time    0.0026
    EDDIAG:  cpu time    1.2369: real time    1.2371
  RMM-DIIS:  cpu time    1.1190: real time    1.1193
    ORTHCH:  cpu time    0.1737: real time    0.1738
       DOS:  cpu time    0.0011: real time    0.0011
    CHARGE:  cpu time    0.1078: real time    0.1078
    MIXING:  cpu time    0.0021: real time    0.0021
    --------------------------------------------
      LOOP:  cpu time    2.7292: real time    2.7301

 eigenvalue-minimisations  :  4807
 total energy-change (2. order) :-0.6343083E-05  (-0.1589099E-06)
 number of electron     167.9999964 magnetization 
 augmentation part      -31.1347949 magnetization 

 Broyden mixing:
  rms(total) = 0.72651E-04    rms(broyden)= 0.72651E-04
  rms(prec ) = 0.10646E-03
  weight for this iteration     100.00

 eigenvalues of (default mixing * dielectric matrix)
  average eigenvalue GAMMA=   1.4700
  6.1217  3.8137  2.8259  2.4597  1.8215  1.2344  1.0155  0.9424  0.9424  0.7582
  0.6150  0.6491  0.6491  0.4552  0.1742  0.1542  0.3585

 Free energy of the ion-electron system (eV)
  ---------------------------------------------------
  alpha Z        PSCENC =        -5.40434045
  Ewald energy   TEWEN  =       390.04496514
  -Hartree energ DENC   =     -5821.11513505
  -exchange      EXHF   =         0.00000000
  -V(xc)+E(xc)   XCENC  =     -1064.65307534
  PAW double counting   =      2941.34024095    -1600.91697684
  entropy T*S    EENTRO =         0.01358278
  eigenvalues    EBANDS =      -756.12074538
  atomic energy  EATOM  =      5816.47334678
  Solvation  Ediel_sol  =         0.00000000
  ---------------------------------------------------
  free energy    TOTEN  =      -100.33813742 eV

  energy without entropy =     -100.35172020  energy(sigma->0) =     -100.34266502


--------------------------------------------------------------------------------------------------------




--------------------------------------- Iteration      1(  23)  ---------------------------------------


    POTLOK:  cpu time    0.0831: real time    0.0887
    SETDIJ:  cpu time    0.0027: real time    0.0027
    EDDIAG:  cpu time    1.1378: real time    1.1381
  RMM-DIIS:  cpu time    1.1141: real time    1.1143
    ORTHCH:  cpu time    0.1709: real time    0.1709
       DOS:  cpu time    0.0011: real time    0.0011
    CHARGE:  cpu time    0.1074: real time    0.1074
    MIXING:  cpu time    0.0020: real time    0.0020
    --------------------------------------------
      LOOP:  cpu time    2.6190: real time    2.6251

 eigenvalue-minimisations  :  3668
 total energy-change (2. order) :-0.1895954E-05  (-0.4525466E-07)
 number of electron     167.9999964 magnetization 
 augmentation part      -31.1347828 magnetization 

 Broyden mixing:
  rms(total) = 0.46151E-04    rms(broyden)= 0.46150E-04
  rms(prec ) = 0.63414E-04
  weight for this iteration     100.00

 eigenvalues of (default mixing * dielectric matrix)
  average eigenvalue GAMMA=   1.5232
  6.4233  4.1432  2.9759  2.4915  2.0368  1.7260  1.0991  0.9615  0.9615  0.1742
  0.1542  0.4552  0.8317  0.7542  0.3585  0.6614  0.6170  0.5927

 Free energy of the ion-electron system (eV)
  ---------------------------------------------------
  alpha Z        PSCENC =        -5.40434045
  Ewald energy   TEWEN  =       390.04496514
  -Hartree energ DENC   =     -5821.12969387
  -exchange      EXHF   =         0.00000000
  -V(xc)+E(xc)   XCENC  =     -1064.65296589
  PAW double counting   =      2941.33563120    -1600.91235853
  entropy T*S    EENTRO =         0.01358276
  eigenvalues    EBANDS =      -756.10630645
  atomic energy  EATOM  =      5816.47334678
  Solvation  Ediel_sol  =         0.00000000
  ---------------------------------------------------
  free energy    TOTEN  =      -100.33813932 eV

  energy without entropy =     -100.35172208  energy(sigma->0) =     -100.34266691


--------------------------------------------------------------------------------------------------------




--------------------------------------- Iteration      1(  24)  ---------------------------------------


    POTLOK:  cpu time    0.0872: real time    0.0875
    SETDIJ:  cpu time    0.0027: real time    0.0027
    EDDIAG:  cpu time    1.1324: real time    1.1328
  RMM-DIIS:  cpu time    1.1413: real time    1.1417
    ORTHCH:  cpu time    0.1788: real time    0.1789
       DOS:  cpu time    0.0011: real time    0.0011
    --------------------------------------------
      LOOP:  cpu time    2.5435: real time    2.5447

 eigenvalue-minimisations  :  3173
 total energy-change (2. order) :-0.9515170E-06  (-0.2175472E-07)
 number of electron     167.9999964 magnetization 
 augmentation part      -31.1347828 magnetization 

 Free energy of the ion-electron system (eV)
  ---------------------------------------------------
  alpha Z        PSCENC =        -5.40434045
  Ewald energy   TEWEN  =       390.04496514
  -Hartree energ DENC   =     -5821.13760845
  -exchange      EXHF   =         0.00000000
  -V(xc)+E(xc)   XCENC  =     -1064.65283160
  PAW double counting   =      2941.33027568    -1600.90690122
  entropy T*S    EENTRO =         0.01358584
  eigenvalues    EBANDS =      -756.09863198
  atomic energy  EATOM  =      5816.47334678
  Solvation  Ediel_sol  =         0.00000000
  ---------------------------------------------------
  free energy    TOTEN  =      -100.33814027 eV

  energy without entropy =     -100.35172611  energy(sigma->0) =     -100.34266889


--------------------------------------------------------------------------------------------------------




 average (electrostatic) potential at core
  the test charge radii are     1.1712  1.1897
  (the norm of the test charge is              1.0000)
       1 -93.1040       2 -92.9633       3 -92.9384       4 -92.8714       5 -92.6873
       6 -92.8983       7 -92.8714       8 -92.9384       9 -92.9632      10 -93.1040
[...]
     61      -1.5022      2.00000
     62      -1.4508      2.00000
     63      -1.3535      2.00000
     64      -1.3349      2.00000
     65      -1.1985      2.00000
     66      -1.1356      2.00000
     67      -1.0592      2.00000
     68      -0.7954      2.00000
     69      -0.7449      2.00000
     70      -0.5287      2.00000
     71      -0.4716      2.00000
     72      -0.4067      2.00000
     73      -0.3221      2.00000
     74      -0.2167      2.00001
     75      -0.1884      2.00003
     76      -0.1045      2.00032
     77      -0.0348      2.00181
     78       0.0051      2.00432
     79       0.0682      2.01404
     80       0.1501      2.04337
     81       0.2544      2.06608
     82       0.3214      1.96607
     83       0.4658      1.08716
     84       0.5488      0.42789
     85       0.9586     -0.00339
     86       1.0130     -0.00098
     87       1.1512     -0.00002
     88       1.2562     -0.00000
     89       1.5188     -0.00000
     90       1.5527     -0.00000
     91       1.5834     -0.00000
     92       1.8361     -0.00000
     93       1.8601     -0.00000
     94       1.9870     -0.00000
     95       2.0160     -0.00000
     96       2.0533     -0.00000
     97       2.1457     -0.00000
     98       2.2051     -0.00000
     99       2.2746     -0.00000
    100       2.2784     -0.00000
    101       2.3063     -0.00000
    102       2.3946     -0.00000
    103       2.4252     -0.00000
    104       2.4749     -0.00000
    105       2.5762     -0.00000
    106       2.5839     -0.00000
    107       2.6533     -0.00000
    108       2.7961     -0.00000
    109       2.8752     -0.00000
    110       2.9526     -0.00000
    111       3.0580     -0.00000
    112       3.0835     -0.00000
    113       3.1860     -0.00000
    114       3.2586     -0.00000
    115       3.3443     -0.00000
    116       3.6035     -0.00000
    117       3.7087     -0.00000
    118       3.8241     -0.00000
    119       3.8666     -0.00000
    120       4.1185     -0.00000
    121       4.4599     -0.00000
    122       4.6590     -0.00000
    123       4.8137     -0.00000
    124       4.8466     -0.00000
    125       4.9731     -0.00000
    126       5.1106     -0.00000
    127       5.1791     -0.00000
    128       5.2079     -0.00000


--------------------------------------------------------------------------------------------------------


 soft charge-density along one line, spin component           1
         0         1         2         3         4         5         6         7         8         9
 total charge-density along one line
 
 pseudopotential strength for first ion, spin component:           1
 41.663  -0.040   0.033   0.038   0.022   0.000   0.000   0.000
 -0.040   1.459   0.001   0.001   0.001  -0.000  -0.000  -0.000
  0.033   0.001   9.548   0.001   0.000   0.000  -0.000  -0.000
  0.038   0.001   0.001   9.545  -0.003  -0.000   0.000  -0.000
  0.022   0.001   0.000  -0.003   9.549  -0.000  -0.000   0.000
  0.000  -0.000   0.000  -0.000  -0.000   0.007   0.000   0.000
  0.000  -0.000  -0.000   0.000  -0.000   0.000   0.007   0.000
  0.000  -0.000  -0.000  -0.000   0.000   0.000   0.000   0.007
  0.001   0.000   0.002   0.001   0.003   0.000   0.000   0.000
  0.001   0.000   0.003   0.004   0.001   0.000   0.000   0.000
 -0.003   0.000  -0.002   0.004  -0.001  -0.000   0.001  -0.000
 -0.006   0.000   0.001   0.002   0.003   0.000   0.000   0.000
  0.001  -0.000  -0.004  -0.000   0.002  -0.000   0.000   0.000
 total augmentation occupancy for first ion, spin component:           1
  2.003  -0.013  -0.133  -0.172  -0.100   0.073   0.100   0.058  -0.000  -0.000  -0.000  -0.003   0.002
 -0.013   0.009   0.038   0.045   0.026  -0.018  -0.026  -0.015   0.001   0.001  -0.001  -0.003   0.000
 -0.133   0.038   0.958  -0.009  -0.005  -0.332  -0.045  -0.026   0.028   0.049  -0.024  -0.040   0.004
 -0.172   0.045  -0.009   1.041   0.106  -0.046  -0.310   0.056  -0.028   0.028   0.036  -0.002  -0.003
 -0.100   0.026  -0.005   0.106   0.919  -0.027   0.056  -0.375   0.060  -0.028  -0.030   0.033   0.028
  0.073  -0.018  -0.332  -0.046  -0.027   0.211   0.019   0.011  -0.017  -0.030   0.011   0.019  -0.003
  0.100  -0.026  -0.045  -0.310   0.056   0.019   0.192  -0.047   0.019  -0.012  -0.017   0.003   0.006
  0.058  -0.015  -0.026   0.056  -0.375   0.011  -0.047   0.247  -0.035   0.019   0.020  -0.018  -0.014
 -0.000   0.001   0.028  -0.028   0.060  -0.017   0.019  -0.035   0.013  -0.002  -0.003   0.000   0.002
 -0.000   0.001   0.049   0.028  -0.028  -0.030  -0.012   0.019  -0.002   0.011   0.001  -0.004   0.001
 -0.000  -0.001  -0.024   0.036  -0.030   0.011  -0.017   0.020  -0.003   0.001   0.008  -0.000  -0.002
 -0.003  -0.003  -0.040  -0.002   0.033   0.019   0.003  -0.018   0.000  -0.004  -0.000   0.009  -0.000
  0.002   0.000   0.004  -0.003   0.028  -0.003   0.006  -0.014   0.002   0.001  -0.002  -0.000   0.007


------------------------ aborting loop because EDIFF is reached ----------------------------------------


 


 total charge     
 
# of ion       s       p       d       tot
------------------------------------------
    1        1.232   1.070   0.027   2.329
    2        1.235   1.065   0.028   2.328
    3        1.250   1.039   0.042   2.330
    4        1.250   0.999   0.050   2.299
    5        1.278   0.974   0.043   2.295
    6        1.261   1.004   0.042   2.307
    7        1.259   0.981   0.046   2.286
    8        1.251   1.040   0.042   2.332
    9        1.232   1.074   0.028   2.334
   10        1.231   1.082   0.029   2.341
   11        1.257   1.015   0.042   2.314
   12        1.275   0.975   0.042   2.292
   13        1.405   1.898   0.025   3.328
   14        1.405   1.887   0.026   3.318
   15        1.396   1.908   0.031   3.334
   16        1.408   1.890   0.021   3.319
   17        1.401   1.910   0.020   3.330
   18        1.416   1.859   0.027   3.301
   19        1.394   1.928   0.018   3.339
   20        1.406   1.898   0.025   3.329
   21        1.397   1.928   0.023   3.348
   22        1.399   1.922   0.019   3.341
   23        1.399   1.911   0.018   3.328
   24        1.398   1.911   0.020   3.330
   25        1.410   1.880   0.030   3.319
   26        1.410   1.892   0.029   3.331
   27        1.419   1.849   0.026   3.295
   28        1.410   1.883   0.025   3.318
   29        1.394   1.929   0.018   3.341
   30        1.394   1.912   0.033   3.339
--------------------------------------------------
tot         40.271  46.512   0.894  87.677
 
    CHARGE:  cpu time    0.1093: real time    0.1094
    FORLOC:  cpu time    0.0016: real time    0.0016
    FORNL :  cpu time    0.3535: real time    0.3535
    STRESS:  cpu time    1.7549: real time    1.7555
    FORCOR:  cpu time    0.0518: real time    0.0518
    FORHAR:  cpu time    0.0106: real time    0.0106
    MIXING:  cpu time    0.0008: real time    0.0008
    OFIELD:  cpu time    0.0000: real time    0.0000

  FORCE on cell =-STRESS in cart. coord.  units (eV):
  Direction    XX          YY          ZZ          XY          YZ          ZX
  --------------------------------------------------------------------------------------
  Alpha Z    -5.40434    -5.40434    -5.40434
  Ewald    1209.16741  3459.07436 -4468.82765    28.87702    50.01517 -4917.28786
  Hartree  2838.92896  4978.39412 -2186.41785    21.76449    37.69731 -4352.07777
  E(xc)    -657.40579  -657.37492  -659.48632     0.55077     0.95398    -1.80184
  Local   -6986.67062-11378.62727  3700.63325   -51.07695   -88.46729  9255.47523
  n-local  2976.13974  2972.49639  2988.04887    -3.32622    -5.76084    10.31457
  augment  -683.87857  -683.48278  -687.87943     0.24932     0.42978    -3.46426
  Kinetic  1300.51499  1309.72392  1314.77820     3.23828     5.60962    12.35339
  Fock        0.00000     0.00000     0.00000     0.00000     0.00000     0.00000
  -------------------------------------------------------------------------------------
  Total      -8.60887    -5.20053    -4.55462     0.27604     0.47812     3.51109
  in kB      -6.77484    -4.09262    -3.58431     0.21723     0.37626     2.76309
  external pressure =       -4.82 kB  Pullay stress =        0.00 kB


 VOLUME and BASIS-vectors are now :
 -----------------------------------------------------------------------------
  energy-cutoff  :      300.00
  volume of cell :     2035.91
      direct lattice vectors                 reciprocal lattice vectors
     3.750449470  0.000000000 -2.165322957     0.266634708 -0.000000000  0.000000000
     0.000000000 31.337301284  0.000000000     0.000000000  0.031910853  0.000000000
     0.000000000  0.000000000 17.322583980     0.033329338 -0.000000000  0.057728108

  length of vectors
     4.330645995 31.337301284 17.322583980     0.266634708  0.031910853  0.066658677


 FORCES acting on ions
    electron-ion (+dipol)            ewald-force                    non-local-force                 convergence-correction
 -----------------------------------------------------------------------------------------------
   0.958E+02 -.261E+01 0.166E+03   -.993E+02 -.243E+01 -.172E+03   0.373E+01 0.501E+01 0.647E+01   0.557E-04 -.406E-04 0.965E-04
   0.858E+02 0.439E+02 0.149E+03   -.901E+02 -.479E+02 -.156E+03   0.443E+01 0.400E+01 0.767E+01   -.101E-03 0.672E-04 -.174E-03
   0.122E+02 0.232E+02 0.210E+02   -.113E+02 -.304E+02 -.196E+02   -.830E+00 0.721E+01 -.144E+01   -.329E-04 0.135E-03 -.570E-04
   0.291E+02 0.139E+02 0.505E+02   -.271E+02 -.121E+02 -.470E+02   -.198E+01 -.184E+01 -.343E+01   0.123E-04 -.295E-04 0.212E-04
   0.669E+02 -.397E+02 0.116E+03   -.679E+02 0.424E+02 -.118E+03   0.108E+01 -.273E+01 0.187E+01   -.155E-04 -.597E-04 -.268E-04
   0.656E+02 -.104E+02 0.114E+03   -.662E+02 0.179E+02 -.115E+03   0.556E+00 -.753E+01 0.963E+00   0.240E-04 0.844E-05 0.415E-04
   -.284E+02 -.309E+02 -.493E+02   0.259E+02 0.287E+02 0.449E+02   0.250E+01 0.218E+01 0.433E+01   -.266E-04 -.774E-04 -.461E-04
   -.940E+01 0.778E+01 -.163E+02   0.832E+01 -.144E-01 0.144E+02   0.972E+00 -.745E+01 0.168E+01   -.430E-04 0.162E-04 -.745E-04
   -.876E+02 -.251E+02 -.152E+03   0.919E+02 0.295E+02 0.159E+03   -.435E+01 -.460E+01 -.753E+01   0.149E-04 -.611E-04 0.257E-04
   -.100E+03 -.319E+01 -.174E+03   0.104E+03 0.768E+01 0.180E+03   -.366E+01 -.450E+01 -.635E+01   -.753E-04 0.104E-03 -.130E-03
   -.686E+02 0.353E+01 -.119E+03   0.693E+02 -.117E+02 0.120E+03   -.661E+00 0.809E+01 -.114E+01   0.210E-04 -.135E-03 0.365E-04
   -.633E+02 0.239E+02 -.110E+03   0.637E+02 -.255E+02 0.110E+03   -.426E+00 0.154E+01 -.739E+00   0.663E-05 -.524E-05 0.115E-04
   0.387E+02 0.568E+02 0.670E+02   -.387E+02 -.624E+02 -.670E+02   -.450E-01 0.575E+01 -.779E-01   -.448E-04 -.297E-04 -.776E-04
   0.718E+02 -.586E+02 0.124E+03   -.702E+02 0.642E+02 -.122E+03   -.160E+01 -.561E+01 -.277E+01   0.371E-04 0.457E-05 0.643E-04
   0.411E+02 -.107E+02 0.712E+02   -.417E+02 0.104E+02 -.723E+02   0.648E+00 0.285E+00 0.112E+01   0.284E-04 -.169E-04 0.492E-04
   0.777E+02 0.278E+02 0.135E+03   -.789E+02 -.323E+02 -.137E+03   0.129E+01 0.432E+01 0.223E+01   0.653E-04 -.262E-05 0.113E-03
   0.107E+03 -.223E+02 0.186E+03   -.109E+03 0.243E+02 -.189E+03   0.218E+01 -.210E+01 0.378E+01   0.285E-04 0.149E-04 0.494E-04
   0.833E+02 0.500E+01 0.144E+03   -.839E+02 0.787E+00 -.145E+03   0.578E+00 -.576E+01 0.100E+01   -.111E-03 -.103E-04 -.192E-03
   0.111E+03 0.270E+02 0.192E+03   -.113E+03 -.311E+02 -.195E+03   0.192E+01 0.404E+01 0.333E+01   -.433E-04 -.434E-04 -.749E-04
   0.347E+02 -.465E+02 0.601E+02   -.358E+02 0.514E+02 -.620E+02   0.105E+01 -.481E+01 0.182E+01   -.406E-04 -.742E-04 -.704E-04
   0.123E+03 -.614E+01 0.214E+03   -.126E+03 0.536E+01 -.218E+03   0.245E+01 0.764E+00 0.424E+01   0.494E-04 0.509E-06 0.856E-04
   -.102E+03 0.534E+02 -.177E+03   0.104E+03 -.553E+02 0.180E+03   -.211E+01 0.188E+01 -.366E+01   0.769E-04 -.177E-04 0.133E-03
   -.741E+02 -.484E+02 -.128E+03   0.757E+02 0.534E+02 0.131E+03   -.155E+01 -.488E+01 -.268E+01   -.408E-04 -.535E-04 -.708E-04
   -.121E+03 -.734E+01 -.209E+03   0.123E+03 0.795E+01 0.214E+03   -.255E+01 -.562E+00 -.441E+01   -.441E-04 -.134E-03 -.764E-04
   -.788E+02 0.475E+02 -.136E+03   0.775E+02 -.529E+02 0.134E+03   0.132E+01 0.543E+01 0.229E+01   -.102E-03 0.893E-04 -.177E-03
   -.393E+02 -.244E+02 -.680E+02   0.391E+02 0.299E+02 0.677E+02   0.214E+00 -.553E+01 0.371E+00   -.358E-04 0.119E-03 -.620E-04
   -.827E+02 0.196E+02 -.143E+03   0.832E+02 -.257E+02 0.144E+03   -.535E+00 0.603E+01 -.926E+00   0.992E-04 0.122E-03 0.172E-03
   -.373E+02 0.318E+02 -.646E+02   0.383E+02 -.367E+02 0.664E+02   -.101E+01 0.491E+01 -.174E+01   0.367E-05 0.106E-03 0.636E-05
   -.112E+03 -.364E+02 -.194E+03   0.114E+03 0.405E+02 0.197E+03   -.196E+01 -.402E+01 -.340E+01   0.662E-04 -.156E-04 0.115E-03
   -.406E+02 -.107E+02 -.703E+02   0.412E+02 0.120E+02 0.714E+02   -.682E+00 -.133E+01 -.118E+01   0.910E-05 -.124E-03 0.158E-04
 -----------------------------------------------------------------------------------------------
   -.991E+00 0.184E+01 -.168E+01   0.711E-13 0.711E-14 -.227E-12   0.977E+00 -.184E+01 0.169E+01   -.158E-03 -.143E-03 -.274E-03
 
 
 POSITION                                       TOTAL-FORCE (eV/Angst)
 -----------------------------------------------------------------------------------
      2.50030      1.98657     -0.72178         0.185275     -0.026205      0.320905
      2.44270      8.88981     -0.82154         0.068146      0.024276      0.118032
     -0.06639     12.70747      3.49388         0.010742     -0.007386      0.018605
     -0.16306     18.93315      3.32645         0.000697     -0.018600      0.001207
      1.28883     22.56724      1.51055         0.003143      0.025051      0.005444
      1.23479     28.93270      1.41694         0.013971     -0.022679      0.024199
      2.66277      1.97922      3.89028        -0.023933     -0.001166     -0.041453
      2.50030      8.45922      3.60887        -0.110624      0.322667     -0.191606
      0.00000     12.43233      7.93952         0.013026     -0.163240      0.022562
     -0.14790     18.90755      7.68336         0.001503     -0.005646      0.002604
      1.28468     23.31988      5.83401         0.012104     -0.039973      0.020964
      1.14295     29.72067      5.58853         0.030983     -0.005540      0.053664
     -0.19136      7.06933      3.27742         0.000429      0.081896      0.000743
      1.14078      3.54985      1.25412        -0.002206     -0.004124     -0.003821
     -0.08317      0.03518      3.46482        -0.016234      0.014525     -0.028118
      1.25015     17.19508      1.44355         0.021279     -0.231109      0.036856
      2.60728     14.26772     -0.53648        -0.016330     -0.077102     -0.028284
      0.81069     10.80004      0.68239        -0.008753      0.026873     -0.015160
      2.47796     27.47226     -0.76046         0.020763     -0.039389      0.035962
     -0.00156     24.52140      3.60617        -0.008089      0.069449     -0.014011
      2.51845     20.88065     -0.69033        -0.024873     -0.015696     -0.043081
     -0.09244      7.22087      7.77940         0.045804     -0.042620      0.079335
      1.25015      3.69643      5.77420        -0.041477      0.122987     -0.071840
      0.00000      0.00000      7.93952        -0.136398      0.047720     -0.236249
      1.23718     17.30018      5.75174        -0.006725     -0.014512     -0.011648
      2.59825     14.12562      3.77852         0.006394     -0.045738      0.011075
      1.66813     10.49764      6.49816        -0.007416     -0.043780     -0.012845
      2.53062     27.68225      3.66138        -0.016710     -0.010332     -0.028943
      0.03043     24.79010      7.99222        -0.005993      0.077024     -0.010381
      2.53130     20.89433      3.66256        -0.008497      0.002370     -0.014718
 -----------------------------------------------------------------------------------
    total drift:                               -0.014892      0.000526      0.009057


--------------------------------------------------------------------------------------------------------



  FREE ENERGIE OF THE ION-ELECTRON SYSTEM (eV)
  ---------------------------------------------------
  free  energy   TOTEN  =      -103.92928492 eV

  energy  without entropy=     -103.92450109  energy(sigma->0) =     -103.92769031
 
 d Force = 0.1820148E-01[ 0.244E-02, 0.340E-01]  d Energy = 0.1824845E-01-0.470E-04
 d Force =-0.8627170E+01[-0.904E+01,-0.822E+01]  d Ewald  =-0.8628914E+01 0.174E-02


--------------------------------------------------------------------------------------------------------


    POTLOK:  cpu time    0.0752: real time    0.0752


--------------------------------------------------------------------------------------------------------


 Conjugate gradient step on ions:
 trial-energy change:   -0.018248  1 .order   -0.018201   -0.033959   -0.002444
  (g-gl).g = 0.916E-02      g.g   = 0.933E-02  gl.gl    = 0.112E-01
 g(Force)  = 0.933E-02   g(Stress)= 0.000E+00 ortho     =-0.284E-04
 gamma     =   0.81608
 trial     =   3.64733
 opt step  =   3.93018  (harmonic =   3.93018) maximal distance =0.07109401
 next E    =  -103.929333   (d E  =  -0.01830)


--------------------------------------------------------------------------------------------------------


 writing wavefunctions
     LOOP+:  cpu time   52.8339: real time   53.1767
    4ORBIT:  cpu time    0.0000: real time    0.0000
 


 total charge     
 
# of ion       s       p       d       tot
------------------------------------------
    1        1.232   1.070   0.027   2.329
    2        1.235   1.065   0.028   2.328
    3        1.250   1.039   0.042   2.330
    4        1.250   0.999   0.050   2.299
    5        1.278   0.974   0.043   2.295
    6        1.261   1.004   0.042   2.307
    7        1.259   0.981   0.046   2.286
    8        1.251   1.040   0.042   2.332
    9        1.232   1.074   0.028   2.334
   10        1.231   1.082   0.029   2.341
   11        1.257   1.015   0.042   2.314
   12        1.275   0.975   0.042   2.292
   13        1.405   1.898   0.025   3.328
   14        1.405   1.887   0.026   3.318
   15        1.396   1.908   0.031   3.334
   16        1.408   1.890   0.021   3.319
   17        1.401   1.910   0.020   3.330
   18        1.416   1.859   0.027   3.301
   19        1.394   1.928   0.018   3.339
   20        1.406   1.898   0.025   3.329
   21        1.397   1.928   0.023   3.348
   22        1.399   1.922   0.019   3.341
   23        1.399   1.911   0.018   3.328
   24        1.398   1.911   0.020   3.330
   25        1.410   1.880   0.030   3.319
   26        1.410   1.892   0.029   3.331
   27        1.419   1.849   0.026   3.295
   28        1.410   1.883   0.025   3.318
   29        1.394   1.929   0.018   3.341
   30        1.394   1.912   0.033   3.339
--------------------------------------------------
tot         40.271  46.512   0.894  87.677
 

 total amount of memory used by VASP MPI-rank0    85025. kBytes
=======================================================================

   base      :      30000. kBytes
   nonl-proj :      38731. kBytes
   fftplans  :       5190. kBytes
   grid      :       8231. kBytes
   one-center:         64. kBytes
   wavefun   :       2809. kBytes
 
  
  
 General timing and accounting informations for this job:
 ========================================================
  
                  Total CPU time used (sec):     1129.896
                            User time (sec):     1101.007
                          System time (sec):       28.888
                         Elapsed time (sec):     1143.813
  
                   Maximum memory used (kb):      292892.
                   Average memory used (kb):           0.
  
                          Minor page faults:       323631
                          Major page faults:           40
                 Voluntary context switches:        29213
