 vasp.5.4.4.18Apr17-6-g9f103f2a35 (build Aug 29 2022 10:07:22) complex          
  
 executed on           IFC91_ompi date 2022.09.30  23:56:30
 running on  512 total cores
 distrk:  each k-point on  512 cores,    1 groups
 distr:  one band on NCORES_PER_BAND=   4 cores,  128 groups


--------------------------------------------------------------------------------------------------------


 INCAR:
 POTCAR:   PAW_PBE Sb 06Sep2000                   
 POTCAR:   PAW_PBE Te 08Apr2002                   

 ----------------------------------------------------------------------------- 
|                                                                             |
|           W    W    AA    RRRRR   N    N  II  N    N   GGGG   !!!           |
|           W    W   A  A   R    R  NN   N  II  NN   N  G    G  !!!           |
|           W    W  A    A  R    R  N N  N  II  N N  N  G       !!!           |
|           W WW W  AAAAAA  RRRRR   N  N N  II  N  N N  G  GGG   !            |
|           WW  WW  A    A  R   R   N   NN  II  N   NN  G    G                |
|           W    W  A    A  R    R  N    N  II  N    N   GGGG   !!!           |
|                                                                             |
|      For optimal performance we recommend to set                            |
|        NCORE= 4 - approx SQRT( number of cores)                             |
|      NCORE specifies how many cores store one orbital (NPAR=cpu/NCORE).     |
|      This setting can  greatly improve the performance of VASP for DFT.     |
|      The default,   NCORE=1            might be grossly inefficient         |
|      on modern multi-core architectures or massively parallel machines.     |
|      Do your own testing !!!!                                               |
|      Unfortunately you need to use the default for GW and RPA calculations. |
|      (for HF NCORE is supported but not extensively tested yet)             |
|                                                                             |
 ----------------------------------------------------------------------------- 

 POTCAR:   PAW_PBE Sb 06Sep2000                   
   VRHFIN =Sb: s2p3                                                             
   LEXCH  = PE                                                                  
   EATOM  =   149.8037 eV,   11.0103 Ry                                         
                                                                                
   TITEL  = PAW_PBE Sb 06Sep2000                                                
   LULTRA =        F    use ultrasoft PP ?                                      
   IUNSCR =        1    unscreen: 0-lin 1-nonlin 2-no                           
   RPACOR =    2.200    partial core radius                                     
   POMASS =  121.750; ZVAL   =    5.000    mass and valenz                      
   RCORE  =    2.300    outmost cutoff radius                                   
   RWIGS  =    2.980; RWIGS  =    1.577    wigner-seitz radius (au A)           
   ENMAX  =  172.037; ENMIN  =  129.028 eV                                      
   ICORE  =        3    local potential                                         
   LCOR   =        T    correct aug charges                                     
   LPAW   =        T    paw PP                                                  
   EAUG   =  380.513                                                            
   DEXC   =    -.415                                                            
   RMAX   =    3.515    core radius for proj-oper                               
   RAUG   =    1.300    factor for augmentation sphere                          
   RDEP   =    2.360    radius for radial grids                                 
   QCUT   =   -3.556; QGAM   =    7.112    optimization parameters              
                                                                                
   Description                                                                  
     l     E      TYP  RCUT    TYP  RCUT                                        
     0   .000     23  2.300                                                     
     0  1.000     23  2.300                                                     
     1   .000     23  2.300                                                     
     1   .000     23  2.300                                                     
     2   .000     23  2.300                                                     
     3  -.100     23  2.300                                                     
  local pseudopotential read in
  partial core-charges read in
  atomic valenz-charges read in
  non local Contribution for L=           0  read in
    real space projection operators read in
  non local Contribution for L=           0  read in
    real space projection operators read in
  non local Contribution for L=           1  read in
    real space projection operators read in
  non local Contribution for L=           1  read in
    real space projection operators read in
  non local Contribution for L=           2  read in
    real space projection operators read in
    PAW grid and wavefunctions read in
 
   number of l-projection  operators is LMAX  =           5
   number of lm-projection operators is LMMAX =          13
 
 POTCAR:   PAW_PBE Te 08Apr2002                   
   VRHFIN =Te: s2p4                                                             
   LEXCH  = PE                                                                  
   EATOM  =   223.2721 eV,   16.4100 Ry                                         
                                                                                
   TITEL  = PAW_PBE Te 08Apr2002                                                
   LULTRA =        F    use ultrasoft PP ?                                      
   IUNSCR =        1    unscreen: 0-lin 1-nonlin 2-no                           
   RPACOR =    2.200    partial core radius                                     
   POMASS =  127.600; ZVAL   =    6.000    mass and valenz                      
   RCORE  =    2.300    outmost cutoff radius                                   
   RWIGS  =    2.900; RWIGS  =    1.535    wigner-seitz radius (au A)           
   ENMAX  =  174.982; ENMIN  =  131.236 eV                                      
   ICORE  =        3    local potential                                         
   LCOR   =        T    correct aug charges                                     
   LPAW   =        T    paw PP                                                  
   EAUG   =  368.792                                                            
   DEXC   =    -.169                                                            
   RMAX   =    3.486    core radius for proj-oper                               
   RAUG   =    1.300    factor for augmentation sphere                          
   RDEP   =    2.397    radius for radial grids                                 
   QCUT   =   -3.586; QGAM   =    7.172    optimization parameters              
                                                                                
   Description                                                                  
     l     E      TYP  RCUT    TYP  RCUT                                        
     0   .000     23  2.300                                                     
     0   .000     23  2.300                                                     
     1   .000     23  2.300                                                     
     1   .000     23  2.300                                                     
     2   .000     23  2.300                                                     
     3  -.100     23  2.300                                                     
  local pseudopotential read in
  partial core-charges read in
  atomic valenz-charges read in
  non local Contribution for L=           0  read in
    real space projection operators read in
  non local Contribution for L=           0  read in
    real space projection operators read in
  non local Contribution for L=           1  read in
    real space projection operators read in
  non local Contribution for L=           1  read in
    real space projection operators read in
  non local Contribution for L=           2  read in
    real space projection operators read in
    PAW grid and wavefunctions read in
 
   number of l-projection  operators is LMAX  =           5
   number of lm-projection operators is LMMAX =          13
 

 ----------------------------------------------------------------------------- 
|                                                                             |
|  ADVICE TO THIS USER RUNNING 'VASP/VAMP'   (HEAR YOUR MASTER'S VOICE ...):  |
|                                                                             |
|      You have a (more or less) 'large supercell' and for larger cells       |
|      it might be more efficient to use real space projection operators      |
|      So try LREAL= Auto  in the INCAR   file.                               |
|      Mind: If you want to do a very accurate calculations keep the          |
|      reciprocal projection scheme          (i.e. LREAL=.FALSE.)             |
|                                                                             |
 ----------------------------------------------------------------------------- 

 PAW_PBE Sb 06Sep2000                   :
 energy of atom  1       EATOM= -149.8037
 kinetic energy error for atom=    0.0018 (will be added to EATOM!!)
 PAW_PBE Te 08Apr2002                   :
 energy of atom  2       EATOM= -223.2721
 kinetic energy error for atom=    0.0026 (will be added to EATOM!!)
 
 
 POSCAR: Sb12 Te18                               
  positions in direct lattice
  No initial velocities read in
 exchange correlation table for  LEXCH =        8
   RHO(1)=    0.500       N(1)  =     2000
   RHO(2)=  100.500       N(2)  =     4000
 


--------------------------------------------------------------------------------------------------------


 ion  position               nearest neighbor table
   1  0.667  0.937  0.042-  14 3.03  14 3.03  15 3.19
   2  0.667  0.730  0.042-  13 3.03  18 3.19  18 3.19
   3  0.000  0.603  0.208-  26 3.03  26 3.03  17 3.03  18 3.19  27 3.19  18 3.19
   4  0.000  0.397  0.208-  16 3.03  25 3.03  16 3.03  30 3.19  30 3.19  21 3.19
   5  0.333  0.270  0.125-  20 3.03  20 3.03  30 3.19  21 3.19  21 3.19
   6  0.333  0.063  0.125-  28 3.03  19 3.03  19 3.03  15 3.19  15 3.19
   7  0.667  0.937  0.292-  14 3.03  23 3.03  23 3.03  15 3.19  15 3.19  24 3.19
   8  0.667  0.730  0.292-  13 3.03  13 3.03  22 3.03  18 3.19  27 3.19  27 3.19
   9  0.000  0.603  0.458-  26 3.03  27 3.19  27 3.19
  10  0.000  0.397  0.458-  25 3.03  25 3.03  30 3.19
  11  0.333  0.270  0.375-  29 3.03  20 3.03  29 3.03  30 3.19  30 3.19
  12  0.333  0.063  0.375-  28 3.03  28 3.03  24 3.19  15 3.19  24 3.19
  13  0.000  0.785  0.208-   8 3.03   8 3.03   2 3.03
  14  0.333  0.882  0.125-   7 3.03   1 3.03   1 3.03
  15  0.000  0.000  0.208-   7 3.19   6 3.19  12 3.19   7 3.19   6 3.19   1 3.19
  16  0.333  0.451  0.125-   4 3.03   4 3.03
  17  0.667  0.549  0.042-   3 3.03
  18  0.333  0.667  0.125-   8 3.19   2 3.19   2 3.19   3 3.19   3 3.19
  19  0.667  0.118  0.042-   6 3.03   6 3.03
  20  0.000  0.215  0.208-   5 3.03  11 3.03   5 3.03
  21  0.667  0.333  0.042-   5 3.19   5 3.19   4 3.19
  22  0.000  0.785  0.458-   8 3.03
  23  0.333  0.882  0.375-   7 3.03   7 3.03
  24  0.000  0.000  0.458-  12 3.19  12 3.19   7 3.19
  25  0.333  0.451  0.375-  10 3.03   4 3.03  10 3.03
  26  0.667  0.549  0.292-   3 3.03   3 3.03   9 3.03
  27  0.333  0.667  0.375-   8 3.19   8 3.19   9 3.19   3 3.19   9 3.19
  28  0.667  0.118  0.292-   6 3.03  12 3.03  12 3.03
  29  0.000  0.215  0.458-  11 3.03  11 3.03
  30  0.667  0.333  0.292-   5 3.19  11 3.19  11 3.19   4 3.19   4 3.19  10 3.19
 
  LATTYP: Found a simple orthorhombic cell.
 ALAT       =     4.3306459950
 B/A-ratio  =     3.4641016365
 C/A-ratio  =     7.2361724603
  
  Lattice vectors:
  
 A1 = (  -3.7504494696,   0.0000000000,   2.1653229573)
 A2 = (  -7.5008989393,   0.0000000000, -12.9919380652)
 A3 = (  -0.0000000000, -31.3373012840,   0.0000000000)


Analysis of symmetry for initial positions (statically):
=====================================================================
 Subroutine PRICEL returns:
 Original cell was already a primitive cell.
 

 Routine SETGRP: Setting up the symmetry group for a 
 simple orthorhombic supercell.


 Subroutine GETGRP returns: Found  4 space group operations
 (whereof  1 operations were pure point group operations)
 out of a pool of  8 trial point group operations.


The static configuration has the point symmetry C_1 .
 The point group associated with its full space group is C_2h.


Analysis of symmetry for dynamics (positions and initial velocities):
=====================================================================
 Subroutine PRICEL returns:
 Original cell was already a primitive cell.
 

 Routine SETGRP: Setting up the symmetry group for a 
 simple orthorhombic supercell.


 Subroutine GETGRP returns: Found  4 space group operations
 (whereof  1 operations were pure point group operations)
 out of a pool of  8 trial point group operations.


The dynamic configuration has the point symmetry C_1 .
 The point group associated with its full space group is C_2h.


Analysis of constrained symmetry for selective dynamics:
=====================================================================
 Subroutine PRICEL returns:
 Original cell was already a primitive cell.
 

 Routine SETGRP: Setting up the symmetry group for a 
 simple orthorhombic supercell.


 Subroutine GETGRP returns: Found  2 space group operations
 (whereof  1 operations were pure point group operations)
 out of a pool of  8 trial point group operations.


The constrained configuration has the point symmetry C_1 .
 The point group associated with its full space group is C_1h.


 Subroutine INISYM returns: Found  2 space group operations
 (whereof  1 operations are pure point group operations),
 and found     1 'primitive' translations

 
 
 KPOINTS: k-point density of [50, 50, 50]/[a, b, c

Automatic generation of k-mesh.
Space group operators:
 irot       det(A)        alpha          n_x          n_y          n_z        tau_x        tau_y        tau_z
    1     1.000000     0.000000     1.000000     0.000000     0.000000     0.000000     0.000000     0.000000
    2    -1.000000   180.000000     0.866025    -0.000000    -0.500000    -0.833335     0.000000    -0.000000
 
 Subroutine IBZKPT returns following result:
 ===========================================
 
 Found     28 irreducible k-points:
 
 Following reciprocal coordinates:
            Coordinates               Weight
  0.000000  0.000000  0.000000      1.000000
  0.083333  0.000000  0.000000      4.000000
  0.166667  0.000000  0.000000      4.000000
  0.250000  0.000000  0.000000      2.000000
  0.333333  0.000000  0.000000      4.000000
  0.416667  0.000000  0.000000      4.000000
  0.500000  0.000000  0.000000      1.000000
  0.000000  0.500000  0.000000      1.000000
  0.083333  0.500000  0.000000      4.000000
  0.166667  0.500000  0.000000      4.000000
  0.250000  0.500000  0.000000      2.000000
  0.333333  0.500000  0.000000      4.000000
  0.416667  0.500000  0.000000      4.000000
  0.500000  0.500000  0.000000      1.000000
  0.000000 -0.000000  0.333333      2.000000
  0.083333  0.000000  0.333333      2.000000
  0.250000  0.000000  0.333333      4.000000
  0.333333  0.000000  0.333333      2.000000
  0.500000  0.000000  0.333333      2.000000
 -0.416667 -0.000000  0.333333      2.000000
 -0.166667 -0.000000  0.333333      2.000000
  0.000000  0.500000  0.333333      2.000000
  0.083333  0.500000  0.333333      2.000000
  0.250000  0.500000  0.333333      4.000000
  0.333333  0.500000  0.333333      2.000000
  0.500000  0.500000  0.333333      2.000000
 -0.416667  0.500000  0.333333      2.000000
 -0.166667  0.500000  0.333333      2.000000
 
 Following cartesian coordinates:
            Coordinates               Weight
  0.000000  0.000000  0.000000      1.000000
  0.022220 -0.000000  0.000000      4.000000
  0.044439 -0.000000  0.000000      4.000000
  0.066659 -0.000000  0.000000      2.000000
  0.088878 -0.000000  0.000000      4.000000
  0.111098 -0.000000  0.000000      4.000000
  0.133317 -0.000000  0.000000      1.000000
  0.000000  0.015955  0.000000      1.000000
  0.022220  0.015955  0.000000      4.000000
  0.044439  0.015955  0.000000      4.000000
  0.066659  0.015955  0.000000      2.000000
  0.088878  0.015955  0.000000      4.000000
  0.111098  0.015955  0.000000      4.000000
  0.133317  0.015955  0.000000      1.000000
  0.011110 -0.000000  0.019243      2.000000
  0.033329 -0.000000  0.019243      2.000000
  0.077768 -0.000000  0.019243      4.000000
  0.099988 -0.000000  0.019243      2.000000
  0.144427 -0.000000  0.019243      2.000000
 -0.099988  0.000000  0.019243      2.000000
 -0.033329  0.000000  0.019243      2.000000
  0.011110  0.015955  0.019243      2.000000
  0.033329  0.015955  0.019243      2.000000
  0.077768  0.015955  0.019243      4.000000
  0.099988  0.015955  0.019243      2.000000
  0.144427  0.015955  0.019243      2.000000
 -0.099988  0.015955  0.019243      2.000000
 -0.033329  0.015955  0.019243      2.000000
 


--------------------------------------------------------------------------------------------------------




 Dimension of arrays:
   k-points           NKPTS =     28   k-points in BZ     NKDIM =     28   number of bands    NBANDS=    128
   number of dos      NEDOS =    301   number of ions     NIONS =     30
   non local maximal  LDIM  =      5   non local SUM 2l+1 LMDIM =     13
   total plane-waves  NPLWV = 423360
   max r-space proj   IRMAX =      1   max aug-charges    IRDMAX=  12293
   dimension x,y,z NGX =    24 NGY =  180 NGZ =   98
   dimension x,y,z NGXF=    48 NGYF=  360 NGZF=  196
   support grid    NGXF=    48 NGYF=  360 NGZF=  196
   ions per type =              12  18
   NGX,Y,Z   is equivalent  to a cutoff of   9.21,  9.55,  9.41 a.u.
   NGXF,Y,Z  is equivalent  to a cutoff of  18.43, 19.10, 18.81 a.u.

 SYSTEM =  Tetradymite Slab                        
 POSCAR =  Sb12 Te18                               

 Startparameter for this run:
   NWRITE =      2    write-flag & timer
   PREC   = accura    normal or accurate (medium, high low for compatibility)
   ISTART =      0    job   : 0-new  1-cont  2-samecut
   ICHARG =      2    charge: 1-file 2-atom 10-const
   ISPIN  =      1    spin polarized calculation?
   LNONCOLLINEAR =      F non collinear calculations
   LSORBIT =      F    spin-orbit coupling
   INIWAV =      1    electr: 0-lowe 1-rand  2-diag
   LASPH  =      F    aspherical Exc in radial PAW
   METAGGA=      F    non-selfconsistent MetaGGA calc.

 Electronic Relaxation 1
   ENCUT  =  300.0 eV  22.05 Ry    4.70 a.u.   6.12 44.26 24.46*2*pi/ulx,y,z
   ENINI  =  300.0     initial cutoff
   ENAUG  =  380.5 eV  augmentation charge cutoff
   NELM   =     80;   NELMIN=  2; NELMDL= -5     # of ELM steps 
   EDIFF  = 0.1E-05   stopping-criterion for ELM
   LREAL  =      F    real-space projection
   NLSPLINE    = F    spline interpolate recip. space projectors
   LCOMPAT=      F    compatible to vasp.4.4
   GGA_COMPAT  = T    GGA compatible to vasp.4.4-vasp.4.6
   LMAXPAW     = -100 max onsite density
   LMAXMIX     =    2 max onsite mixed and CHGCAR
   VOSKOWN=      0    Vosko Wilk Nusair interpolation
   ROPT   =    0.00000   0.00000
 Ionic relaxation
   EDIFFG = -.1E-01   stopping-criterion for IOM
   NSW    =     20    number of steps for IOM
   NBLOCK =      1;   KBLOCK =     20    inner block; outer block 
   IBRION =      2    ionic relax: 0-MD 1-quasi-New 2-CG
   NFREE  =      1    steps in history (QN), initial steepest desc. (CG)
   ISIF   =      2    stress and relaxation
   IWAVPR =     11    prediction:  0-non 1-charg 2-wave 3-comb
   ISYM   =      2    0-nonsym 1-usesym 2-fastsym
   LCORR  =      T    Harris-Foulkes like correction to forces

   POTIM  = 0.5000    time-step for ionic-motion
   TEIN   =    0.0    initial temperature
   TEBEG  =    0.0;   TEEND  =   0.0 temperature during run
   SMASS  =  -3.00    Nose mass-parameter (am)
   estimated Nose-frequenzy (Omega)   =  0.10E-29 period in steps =****** mass=  -0.429E-27a.u.
   SCALEE = 1.0000    scale energy and forces
   NPACO  =    256;   APACO  = 16.0  distance and # of slots for P.C.
   PSTRESS=    0.0 pullay stress

  Mass of Ions in am
   POMASS = 121.75127.60
  Ionic Valenz
   ZVAL   =   5.00  6.00
  Atomic Wigner-Seitz radii
   RWIGS  =  -1.00 -1.00
  virtual crystal weights 
   VCA    =   1.00  1.00
   NELECT =     168.0000    total number of electrons
   NUPDOWN=      -1.0000    fix difference up-down

 DOS related values:
   EMIN   =  10.00;   EMAX   =-10.00  energy-range for DOS
   EFERMI =   0.00
   ISMEAR =     1;   SIGMA  =   0.20  broadening in eV -4-tet -1-fermi 0-gaus

 Electronic relaxation 2 (details)
   IALGO  =     68    algorithm
   LDIAG  =      T    sub-space diagonalisation (order eigenvalues)
   LSUBROT=      F    optimize rotation matrix (better conditioning)
   TURBO    =      0    0=normal 1=particle mesh
   IRESTART =      0    0=no restart 2=restart with 2 vectors
   NREBOOT  =      0    no. of reboots
   NMIN     =      0    reboot dimension
   EREF     =   0.00    reference energy to select bands
   IMIX   =      4    mixing-type and parameters
     AMIX     =   0.40;   BMIX     =  1.00
     AMIX_MAG =   1.60;   BMIX_MAG =  1.00
     AMIN     =   0.10
     WC   =   100.;   INIMIX=   1;  MIXPRE=   1;  MAXMIX= -45

 Intra band minimization:
   WEIMIN = 0.0010     energy-eigenvalue tresh-hold
   EBREAK =  0.20E-08  absolut break condition
   DEPER  =   0.30     relativ break condition  

   TIME   =   0.40     timestep for ELM

  volume/ion in A,a.u.               =      67.86       457.97
  Fermi-wavevector in a.u.,A,eV,Ry     =   0.712731  1.346866  6.911554  0.507985
  Thomas-Fermi vector in A             =   1.800183
 
 Write flags
   LWAVE        =      T    write WAVECAR
   LDOWNSAMPLE  =      F    k-point downsampling of WAVECAR
   LCHARG       =      T    write CHGCAR
   LVTOT        =      F    write LOCPOT, total local potential
   LVHAR        =      F    write LOCPOT, Hartree potential only
   LELF         =      F    write electronic localiz. function (ELF)
   LORBIT       =     11    0 simple, 1 ext, 2 COOP (PROOUT), +10 PAW based schemes


 Dipole corrections
   LMONO  =      F    monopole corrections only (constant potential shift)
   LDIPOL =      F    correct potential (dipole corrections)
   IDIPOL =      0    1-x, 2-y, 3-z, 4-all directions 
   EPSILON=  1.0000000 bulk dielectric constant

 Exchange correlation treatment:
   GGA     =    --    GGA type
   LEXCH   =     8    internal setting for exchange type
   VOSKOWN=      0    Vosko Wilk Nusair interpolation
   LHFCALC =     F    Hartree Fock is set to
   LHFONE  =     F    Hartree Fock one center treatment
   AEXX    =    0.0000 exact exchange contribution

 Linear response parameters
   LEPSILON=     F    determine dielectric tensor
   LRPA    =     F    only Hartree local field effects (RPA)
   LNABLA  =     F    use nabla operator in PAW spheres
   LVEL    =     F    velocity operator in full k-point grid
   LINTERFAST=   F  fast interpolation
   KINTER  =     0    interpolate to denser k-point grid
   CSHIFT  =0.1000    complex shift for real part using Kramers Kronig
   OMEGAMAX=  -1.0    maximum frequency
   DEG_THRESHOLD= 0.2000000E-02 threshold for treating states as degnerate
   RTIME   =   -0.100 relaxation time in fs
  (WPLASMAI=    0.000 imaginary part of plasma frequency in eV, 0.658/RTIME)
   DFIELD  = 0.0000000 0.0000000 0.0000000 field for delta impulse in time
 
 Orbital magnetization related:
   ORBITALMAG=     F  switch on orbital magnetization
   LCHIMAG   =     F  perturbation theory with respect to B field
   DQ        =  0.001000  dq finite difference perturbation B field
   LLRAUG    =     F  two centre corrections for induced B field



--------------------------------------------------------------------------------------------------------


 conjugate gradient relaxation of ions
   using selective dynamics as specified on POSCAR
 charge density and potential will be updated during run
 non-spin polarized calculation
 RMM-DIIS sequential band-by-band and
  variant of blocked Davidson during initial phase
 perform sub-space diagonalisation
    before iterative eigenvector-optimisation
 modified Broyden-mixing scheme, WC =      100.0
 initial mixing is a Kerker type mixing with AMIX =  0.4000 and BMIX =      1.0000
 Hartree-type preconditioning will be used
 using additional bands           44
 reciprocal scheme for non local part
 use partial core corrections
 calculate Harris-corrections to forces 
   (improved forces if not selfconsistent)
 use gradient corrections 
 use of overlap-Matrix (Vanderbilt PP)
 Methfessel and Paxton  Order N= 1 SIGMA  =   0.20


--------------------------------------------------------------------------------------------------------


  energy-cutoff  :      300.00
  volume of cell :     2035.91
      direct lattice vectors                 reciprocal lattice vectors
     3.750449470  0.000000000 -2.165322957     0.266634708 -0.000000000  0.000000000
     0.000000000 31.337301284  0.000000000     0.000000000  0.031910853  0.000000000
     0.000000000  0.000000000 17.322583980     0.033329338 -0.000000000  0.057728108

  length of vectors
     4.330645995 31.337301284 17.322583980     0.266634708  0.031910853  0.066658677


 
 k-points in units of 2pi/SCALE and weight: k-point density of [50, 50, 50]/[a, b, c
   0.00000000  0.00000000  0.00000000       0.014
   0.02221956 -0.00000000  0.00000000       0.056
   0.04443912 -0.00000000  0.00000000       0.056
   0.06665868 -0.00000000  0.00000000       0.028
   0.08887824 -0.00000000  0.00000000       0.056
   0.11109780 -0.00000000  0.00000000       0.056
   0.13331735 -0.00000000  0.00000000       0.014
   0.00000000  0.01595543  0.00000000       0.014
   0.02221956  0.01595543  0.00000000       0.056
   0.04443912  0.01595543  0.00000000       0.056
   0.06665868  0.01595543  0.00000000       0.028
   0.08887824  0.01595543  0.00000000       0.056
   0.11109780  0.01595543  0.00000000       0.056
   0.13331735  0.01595543  0.00000000       0.014
   0.01110978 -0.00000000  0.01924270       0.028
   0.03332934 -0.00000000  0.01924270       0.028
   0.07776846 -0.00000000  0.01924270       0.056
   0.09998802 -0.00000000  0.01924270       0.028
   0.14442713 -0.00000000  0.01924270       0.028
  -0.09998802  0.00000000  0.01924270       0.028
  -0.03332934  0.00000000  0.01924270       0.028
   0.01110978  0.01595543  0.01924270       0.028
   0.03332934  0.01595543  0.01924270       0.028
   0.07776846  0.01595543  0.01924270       0.056
   0.09998802  0.01595543  0.01924270       0.028
   0.14442713  0.01595543  0.01924270       0.028
  -0.09998802  0.01595543  0.01924270       0.028
  -0.03332934  0.01595543  0.01924270       0.028
 
 k-points in reciprocal lattice and weights: k-point density of [50, 50, 50]/[a, b, c
   0.00000000  0.00000000  0.00000000       0.014
   0.08333333  0.00000000  0.00000000       0.056
   0.16666667  0.00000000  0.00000000       0.056
   0.25000000  0.00000000  0.00000000       0.028
   0.33333333  0.00000000  0.00000000       0.056
   0.41666667  0.00000000  0.00000000       0.056
   0.50000000  0.00000000  0.00000000       0.014
   0.00000000  0.50000000  0.00000000       0.014
   0.08333333  0.50000000  0.00000000       0.056
   0.16666667  0.50000000  0.00000000       0.056
   0.25000000  0.50000000  0.00000000       0.028
   0.33333333  0.50000000  0.00000000       0.056
   0.41666667  0.50000000  0.00000000       0.056
   0.50000000  0.50000000  0.00000000       0.014
   0.00000000 -0.00000000  0.33333333       0.028
   0.08333333  0.00000000  0.33333333       0.028
   0.25000000  0.00000000  0.33333333       0.056
   0.33333333  0.00000000  0.33333333       0.028
   0.50000000  0.00000000  0.33333333       0.028
  -0.41666667 -0.00000000  0.33333333       0.028
  -0.16666667 -0.00000000  0.33333333       0.028
   0.00000000  0.50000000  0.33333333       0.028
   0.08333333  0.50000000  0.33333333       0.028
   0.25000000  0.50000000  0.33333333       0.056
   0.33333333  0.50000000  0.33333333       0.028
   0.50000000  0.50000000  0.33333333       0.028
  -0.41666667  0.50000000  0.33333333       0.028
  -0.16666667  0.50000000  0.33333333       0.028
 
 position of ions in fractional coordinates (direct lattice) 
   0.66666700  0.93660678  0.04166662
   0.66666700  0.73005922  0.04166662
   0.00000000  0.60327378  0.20833338
   0.00000000  0.39672622  0.20833338
   0.33333300  0.26994078  0.12500012
   0.33333300  0.06339322  0.12500012
   0.66666700  0.93660678  0.29166662
   0.66666700  0.73005922  0.29166662
   0.00000000  0.60327378  0.45833338
   0.00000000  0.39672622  0.45833338
   0.33333300  0.26994078  0.37500012
   0.33333300  0.06339322  0.37500012
   0.00000000  0.78462329  0.20833338
   0.33333300  0.88204371  0.12500012
   0.00000000  0.00000000  0.20833338
   0.33333300  0.45129029  0.12500012
   0.66666700  0.54870971  0.04166662
   0.33333300  0.66666700  0.12500012
   0.66666700  0.11795629  0.04166662
   0.00000000  0.21537671  0.20833338
   0.66666700  0.33333300  0.04166662
   0.00000000  0.78462329  0.45833338
   0.33333300  0.88204371  0.37500012
   0.00000000  0.00000000  0.45833338
   0.33333300  0.45129029  0.37500012
   0.66666700  0.54870971  0.29166662
   0.33333300  0.66666700  0.37500012
   0.66666700  0.11795629  0.29166662
   0.00000000  0.21537671  0.45833338
   0.66666700  0.33333300  0.29166662
 
 position of ions in cartesian coordinates  (Angst):
   2.50030090 29.35072878 -0.72177575
   2.50030090 22.87808581 -0.72177575
   0.00000000 18.90497213  3.60887238
   0.00000000 12.43232916  3.60887238
   1.25014857  8.45921548  1.44355157
   1.25014857  1.98657251  1.44355157
   2.50030090 29.35072878  3.60887025
   2.50030090 22.87808581  3.60887025
   0.00000000 18.90497213  7.93951838
   0.00000000 12.43232916  7.93951838
   1.25014857  8.45921548  5.77419756
   1.25014857  1.98657251  5.77419756
   0.00000000 24.58797633  3.60887238
   1.25014857 27.64086959  1.44355157
   0.00000000  0.00000000  3.60887238
   1.25014857 14.14221968  1.44355157
   2.50030090 17.19508160 -0.72177575
   1.25014857 20.89154464  1.44355157
   2.50030090  3.69643169 -0.72177575
   0.00000000  6.74932495  3.60887238
   2.50030090 10.44575665 -0.72177575
   0.00000000 24.58797633  7.93951838
   1.25014857 27.64086959  5.77419756
   0.00000000  0.00000000  7.93951838
   1.25014857 14.14221968  5.77419756
   2.50030090 17.19508160  3.60887025
   1.25014857 20.89154464  5.77419756
   2.50030090  3.69643169  3.60887025
   0.00000000  6.74932495  7.93951838
   2.50030090 10.44575665  3.60887025
 


--------------------------------------------------------------------------------------------------------


 k-point  1 :   0.0000 0.0000 0.0000  plane waves:   23991
 k-point  2 :   0.0833 0.0000 0.0000  plane waves:   23953
 k-point  3 :   0.1667 0.0000 0.0000  plane waves:   24000
 k-point  4 :   0.2500 0.0000 0.0000  plane waves:   24058
 k-point  5 :   0.3333 0.0000 0.0000  plane waves:   24063
 k-point  6 :   0.4167 0.0000 0.0000  plane waves:   24062
 k-point  7 :   0.5000 0.0000 0.0000  plane waves:   24156
 k-point  8 :   0.0000 0.5000 0.0000  plane waves:   23888
 k-point  9 :   0.0833 0.5000 0.0000  plane waves:   23960
 k-point 10 :   0.1667 0.5000 0.0000  plane waves:   23966
 k-point 11 :   0.2500 0.5000 0.0000  plane waves:   24020
 k-point 12 :   0.3333 0.5000 0.0000  plane waves:   24070
 k-point 13 :   0.4167 0.5000 0.0000  plane waves:   24100
 k-point 14 :   0.5000 0.5000 0.0000  plane waves:   24112
 k-point 15 :   0.0000-0.0000 0.3333  plane waves:   23962
 k-point 16 :   0.0833 0.0000 0.3333  plane waves:   23956
 k-point 17 :   0.2500 0.0000 0.3333  plane waves:   24018
 k-point 18 :   0.3333 0.0000 0.3333  plane waves:   24008
 k-point 19 :   0.5000 0.0000 0.3333  plane waves:   24080
 k-point 20 :  -0.4167-0.0000 0.3333  plane waves:   24060
 k-point 21 :  -0.1667-0.0000 0.3333  plane waves:   23976
 k-point 22 :   0.0000 0.5000 0.3333  plane waves:   23968
 k-point 23 :   0.0833 0.5000 0.3333  plane waves:   23984
 k-point 24 :   0.2500 0.5000 0.3333  plane waves:   24032
 k-point 25 :   0.3333 0.5000 0.3333  plane waves:   24064
 k-point 26 :   0.5000 0.5000 0.3333  plane waves:   24064
 k-point 27 :  -0.4167 0.5000 0.3333  plane waves:   24060
 k-point 28 :  -0.1667 0.5000 0.3333  plane waves:   23946

 maximum and minimum number of plane-waves per node :      6056     5965

 maximum number of plane-waves:     24156
 maximum index in each direction: 
   IXMAX=    6   IYMAX=   44   IZMAX=   24
   IXMIN=   -6   IYMIN=  -44   IZMIN=  -24


 parallel 3D FFT for wavefunctions:
    minimum data exchange during FFTs selected (reduces bandwidth)
 parallel 3D FFT for charge:
    minimum data exchange during FFTs selected (reduces bandwidth)


 total amount of memory used by VASP MPI-rank0    85025. kBytes
=======================================================================

   base      :      30000. kBytes
   nonl-proj :      38731. kBytes
   fftplans  :       5190. kBytes
   grid      :       8231. kBytes
   one-center:         64. kBytes
   wavefun   :       2809. kBytes
 
     INWAV:  cpu time    0.0000: real time    0.0002
 Broyden mixing: mesh for mixing (old mesh)
   NGX = 13   NGY = 89   NGZ = 49
  (NGX  = 48   NGY  =360   NGZ  =196)
  gives a total of  56693 points

 initial charge density was supplied:
 charge density of overlapping atoms calculated
 number of electron     168.0000000 magnetization 
 keeping initial charge density in first step


--------------------------------------------------------------------------------------------------------


 Maximum index for augmentation-charges          582 (set IRDMAX)


--------------------------------------------------------------------------------------------------------


 First call to EWALD:  gamma=   0.140
 Maximum number of real-space cells 8x 1x 2
 Maximum number of reciprocal cells 1x 6x 4

    FEWALD:  cpu time    0.0039: real time    0.0039


--------------------------------------- Iteration      1(   1)  ---------------------------------------


    POTLOK:  cpu time    0.1015: real time    0.1377
    SETDIJ:  cpu time    0.0043: real time    0.0045
     EDDAV:  cpu time    7.6234: real time    7.6286
       DOS:  cpu time    0.0081: real time    0.0084
    --------------------------------------------
      LOOP:  cpu time    7.7373: real time    7.7793

 eigenvalue-minimisations  :  7168
 total energy-change (2. order) : 0.5924448E+03  (-0.4337110E+04)
 number of electron     168.0000000 magnetization 
 augmentation part      168.0000000 magnetization 

 Free energy of the ion-electron system (eV)
  ---------------------------------------------------
  alpha Z        PSCENC =        -5.40434045
  Ewald energy   TEWEN  =       390.04496514
  -Hartree energ DENC   =     -5796.60783979
  -exchange      EXHF   =         0.00000000
  -V(xc)+E(xc)   XCENC  =     -1066.94378662
  PAW double counting   =      2891.42314479    -1550.38285165
  entropy T*S    EENTRO =        -0.00056933
  eigenvalues    EBANDS =       -86.15724859
  atomic energy  EATOM  =      5816.47334678
  Solvation  Ediel_sol  =         0.00000000
  ---------------------------------------------------
  free energy    TOTEN  =       592.44482027 eV

  energy without entropy =      592.44538959  energy(sigma->0) =      592.44501004


--------------------------------------------------------------------------------------------------------




--------------------------------------- Iteration      1(   2)  ---------------------------------------


     EDDAV:  cpu time   17.8629: real time   17.8762
       DOS:  cpu time    0.0014: real time    0.0014
    --------------------------------------------
      LOOP:  cpu time   17.8643: real time   17.8776

 eigenvalue-minimisations  : 11264
 total energy-change (2. order) :-0.6679917E+03  (-0.6676834E+03)
 number of electron     168.0000000 magnetization 
 augmentation part      168.0000000 magnetization 

 Free energy of the ion-electron system (eV)
  ---------------------------------------------------
  alpha Z        PSCENC =        -5.40434045
  Ewald energy   TEWEN  =       390.04496514
  -Hartree energ DENC   =     -5796.60783979
  -exchange      EXHF   =         0.00000000
  -V(xc)+E(xc)   XCENC  =     -1066.94378662
  PAW double counting   =      2891.42314479    -1550.38285165
  entropy T*S    EENTRO =         0.00002107
  eigenvalues    EBANDS =      -754.14953992
  atomic energy  EATOM  =      5816.47334678
  Solvation  Ediel_sol  =         0.00000000
  ---------------------------------------------------
  free energy    TOTEN  =       -75.54688066 eV

  energy without entropy =      -75.54690174  energy(sigma->0) =      -75.54688769


--------------------------------------------------------------------------------------------------------




--------------------------------------- Iteration      1(   3)  ---------------------------------------


     EDDAV:  cpu time   26.4270: real time   26.4490
       DOS:  cpu time    0.0016: real time    0.0016
    --------------------------------------------
      LOOP:  cpu time   26.4286: real time   26.4507

 eigenvalue-minimisations  : 13312
 total energy-change (2. order) :-0.2802673E+02  (-0.2796299E+02)
 number of electron     168.0000000 magnetization 
 augmentation part      168.0000000 magnetization 

 Free energy of the ion-electron system (eV)
  ---------------------------------------------------
  alpha Z        PSCENC =        -5.40434045
  Ewald energy   TEWEN  =       390.04496514
  -Hartree energ DENC   =     -5796.60783979
  -exchange      EXHF   =         0.00000000
  -V(xc)+E(xc)   XCENC  =     -1066.94378662
  PAW double counting   =      2891.42314479    -1550.38285165
  entropy T*S    EENTRO =         0.03472259
  eigenvalues    EBANDS =      -782.21097299
  atomic energy  EATOM  =      5816.47334678
  Solvation  Ediel_sol  =         0.00000000
  ---------------------------------------------------
  free energy    TOTEN  =      -103.57361222 eV

  energy without entropy =     -103.60833481  energy(sigma->0) =     -103.58518642


--------------------------------------------------------------------------------------------------------




--------------------------------------- Iteration      1(   4)  ---------------------------------------


     EDDAV:  cpu time   14.2003: real time   14.2104
       DOS:  cpu time    0.0019: real time    0.0019
    --------------------------------------------
      LOOP:  cpu time   14.2022: real time   14.2123

 eigenvalue-minimisations  :  9728
 total energy-change (2. order) :-0.8580109E-01  (-0.8579595E-01)
 number of electron     168.0000000 magnetization 
 augmentation part      168.0000000 magnetization 

 Free energy of the ion-electron system (eV)
  ---------------------------------------------------
  alpha Z        PSCENC =        -5.40434045
  Ewald energy   TEWEN  =       390.04496514
  -Hartree energ DENC   =     -5796.60783979
  -exchange      EXHF   =         0.00000000
  -V(xc)+E(xc)   XCENC  =     -1066.94378662
  PAW double counting   =      2891.42314479    -1550.38285165
  entropy T*S    EENTRO =         0.03524959
  eigenvalues    EBANDS =      -782.29730108
  atomic energy  EATOM  =      5816.47334678
  Solvation  Ediel_sol  =         0.00000000
  ---------------------------------------------------
  free energy    TOTEN  =      -103.65941330 eV

  energy without entropy =     -103.69466290  energy(sigma->0) =     -103.67116317


--------------------------------------------------------------------------------------------------------




--------------------------------------- Iteration      1(   5)  ---------------------------------------


     EDDAV:  cpu time   29.3937: real time   29.4121
       DOS:  cpu time    0.0019: real time    0.0019
    CHARGE:  cpu time    0.1129: real time    0.1150
    MIXING:  cpu time    0.0176: real time    0.0183
    --------------------------------------------
      LOOP:  cpu time   29.5260: real time   29.5472

 eigenvalue-minimisations  : 14336
 total energy-change (2. order) :-0.8956840E-03  (-0.8956839E-03)
 number of electron     167.9999963 magnetization 
 augmentation part      -31.3597636 magnetization 

 Broyden mixing:
  rms(total) = 0.76446E+00    rms(broyden)= 0.76442E+00
  rms(prec ) = 0.95392E+00
  weight for this iteration     100.00

 Free energy of the ion-electron system (eV)
  ---------------------------------------------------
  alpha Z        PSCENC =        -5.40434045
  Ewald energy   TEWEN  =       390.04496514
  -Hartree energ DENC   =     -5796.60783979
  -exchange      EXHF   =         0.00000000
  -V(xc)+E(xc)   XCENC  =     -1066.94378662
  PAW double counting   =      2891.42314479    -1550.38285165
  entropy T*S    EENTRO =         0.03525221
  eigenvalues    EBANDS =      -782.29819938
  atomic energy  EATOM  =      5816.47334678
  Solvation  Ediel_sol  =         0.00000000
  ---------------------------------------------------
  free energy    TOTEN  =      -103.66030899 eV

  energy without entropy =     -103.69556120  energy(sigma->0) =     -103.67205972


--------------------------------------------------------------------------------------------------------




--------------------------------------- Iteration      1(   6)  ---------------------------------------


    POTLOK:  cpu time    0.0877: real time    0.0911
    SETDIJ:  cpu time    0.0060: real time    0.0060
    EDDIAG:  cpu time   29.2377: real time   29.3207
  RMM-DIIS:  cpu time    1.2384: real time    1.2390
    ORTHCH:  cpu time    0.1936: real time    0.1936
       DOS:  cpu time    0.0014: real time    0.0014
    CHARGE:  cpu time    0.1138: real time    0.1138
    MIXING:  cpu time    0.0016: real time    0.0022
    --------------------------------------------
      LOOP:  cpu time   30.8801: real time   30.9678

 eigenvalue-minimisations  :  7168
 total energy-change (2. order) : 0.8109224E+00  (-0.5399191E+00)
 number of electron     167.9999965 magnetization 
 augmentation part      -30.9672609 magnetization 

 Broyden mixing:
  rms(total) = 0.65463E+00    rms(broyden)= 0.65462E+00
  rms(prec ) = 0.89884E+00
  weight for this iteration     100.00

 eigenvalues of (default mixing * dielectric matrix)
  average eigenvalue GAMMA=   0.5658
  0.5658

 Free energy of the ion-electron system (eV)
  ---------------------------------------------------
  alpha Z        PSCENC =        -5.40434045
  Ewald energy   TEWEN  =       390.04496514
  -Hartree energ DENC   =     -5807.21538093
  -exchange      EXHF   =         0.00000000
  -V(xc)+E(xc)   XCENC  =     -1065.53342702
  PAW double counting   =      2940.49061175    -1600.01936339
  entropy T*S    EENTRO =         0.02892274
  eigenvalues    EBANDS =      -771.71472124
  atomic energy  EATOM  =      5816.47334678
  Solvation  Ediel_sol  =         0.00000000
  ---------------------------------------------------
  free energy    TOTEN  =      -102.84938662 eV

  energy without entropy =     -102.87830937  energy(sigma->0) =     -102.85902754


--------------------------------------------------------------------------------------------------------




--------------------------------------- Iteration      1(   7)  ---------------------------------------


    POTLOK:  cpu time    0.0862: real time    0.0889
    SETDIJ:  cpu time    0.0027: real time    0.0027
    EDDIAG:  cpu time    1.3975: real time    1.3978
  RMM-DIIS:  cpu time    1.2334: real time    1.2339
    ORTHCH:  cpu time    0.1877: real time    0.1877
       DOS:  cpu time    0.0015: real time    0.0015
    CHARGE:  cpu time    0.1135: real time    0.1135
    MIXING:  cpu time    0.0009: real time    0.0009
    --------------------------------------------
      LOOP:  cpu time    3.0235: real time    3.0270

 eigenvalue-minimisations  :  7168
 total energy-change (2. order) : 0.1811799E+01  (-0.1158376E+00)
 number of electron     167.9999964 magnetization 
 augmentation part      -31.1163771 magnetization 

 Broyden mixing:
  rms(total) = 0.33867E+00    rms(broyden)= 0.33866E+00
  rms(prec ) = 0.62160E+00
  weight for this iteration     100.00

 eigenvalues of (default mixing * dielectric matrix)
  average eigenvalue GAMMA=   0.6452
  0.8403  0.4500

 Free energy of the ion-electron system (eV)
  ---------------------------------------------------
  alpha Z        PSCENC =        -5.40434045
  Ewald energy   TEWEN  =       390.04496514
  -Hartree energ DENC   =     -5807.44641495
  -exchange      EXHF   =         0.00000000
  -V(xc)+E(xc)   XCENC  =     -1065.65662026
  PAW double counting   =      2933.29294203    -1592.75362250
  entropy T*S    EENTRO =        -0.03661938
  eigenvalues    EBANDS =      -769.55122426
  atomic energy  EATOM  =      5816.47334678
  Solvation  Ediel_sol  =         0.00000000
  ---------------------------------------------------
  free energy    TOTEN  =      -101.03758786 eV

  energy without entropy =     -101.00096847  energy(sigma->0) =     -101.02538140


--------------------------------------------------------------------------------------------------------




--------------------------------------- Iteration      1(   8)  ---------------------------------------


    POTLOK:  cpu time    0.0851: real time    0.0883
    SETDIJ:  cpu time    0.0026: real time    0.0026
    EDDIAG:  cpu time    1.3718: real time    1.3720
  RMM-DIIS:  cpu time    1.2511: real time    1.2517
    ORTHCH:  cpu time    0.2230: real time    0.2230
       DOS:  cpu time    0.0013: real time    0.0013
    CHARGE:  cpu time    0.1127: real time    0.1128
    MIXING:  cpu time    0.0015: real time    0.0015
    --------------------------------------------
      LOOP:  cpu time    3.0491: real time    3.0533

 eigenvalue-minimisations  :  7168
 total energy-change (2. order) : 0.2912092E+00  (-0.2201273E-01)
 number of electron     167.9999964 magnetization 
 augmentation part      -31.0522015 magnetization 

 Broyden mixing:
  rms(total) = 0.28926E+00    rms(broyden)= 0.28925E+00
  rms(prec ) = 0.49282E+00
  weight for this iteration     100.00

 eigenvalues of (default mixing * dielectric matrix)
  average eigenvalue GAMMA=   0.7129
  1.4558  0.5050  0.1778

 Free energy of the ion-electron system (eV)
  ---------------------------------------------------
  alpha Z        PSCENC =        -5.40434045
  Ewald energy   TEWEN  =       390.04496514
  -Hartree energ DENC   =     -5808.90970512
  -exchange      EXHF   =         0.00000000
  -V(xc)+E(xc)   XCENC  =     -1065.54995109
  PAW double counting   =      2934.82568393    -1594.30477011
  entropy T*S    EENTRO =        -0.00414681
  eigenvalues    EBANDS =      -767.91746094
  atomic energy  EATOM  =      5816.47334678
  Solvation  Ediel_sol  =         0.00000000
  ---------------------------------------------------
  free energy    TOTEN  =      -100.74637867 eV

  energy without entropy =     -100.74223187  energy(sigma->0) =     -100.74499640


--------------------------------------------------------------------------------------------------------




--------------------------------------- Iteration      1(   9)  ---------------------------------------


    POTLOK:  cpu time    0.0891: real time    0.0908
    SETDIJ:  cpu time    0.0027: real time    0.0027
    EDDIAG:  cpu time    1.3590: real time    1.3592
  RMM-DIIS:  cpu time    1.2340: real time    1.2346
    ORTHCH:  cpu time    0.1959: real time    0.1959
       DOS:  cpu time    0.0013: real time    0.0013
    CHARGE:  cpu time    0.1124: real time    0.1124
    MIXING:  cpu time    0.0015: real time    0.0015
    --------------------------------------------
      LOOP:  cpu time    2.9958: real time    2.9985

 eigenvalue-minimisations  :  7168
 total energy-change (2. order) : 0.3714351E+00  (-0.1312213E-01)
 number of electron     167.9999964 magnetization 
 augmentation part      -31.1192422 magnetization 

 Broyden mixing:
  rms(total) = 0.13848E+00    rms(broyden)= 0.13848E+00
  rms(prec ) = 0.15936E+00
  weight for this iteration     100.00

 eigenvalues of (default mixing * dielectric matrix)
  average eigenvalue GAMMA=   0.9759
  2.5191  0.7541  0.4578  0.1724

 Free energy of the ion-electron system (eV)
  ---------------------------------------------------
  alpha Z        PSCENC =        -5.40434045
  Ewald energy   TEWEN  =       390.04496514
  -Hartree energ DENC   =     -5810.88851526
  -exchange      EXHF   =         0.00000000
  -V(xc)+E(xc)   XCENC  =     -1065.22787564
  PAW double counting   =      2938.56175008    -1598.07926238
  entropy T*S    EENTRO =         0.00612425
  eigenvalues    EBANDS =      -765.86113612
  atomic energy  EATOM  =      5816.47334678
  Solvation  Ediel_sol  =         0.00000000
  ---------------------------------------------------
  free energy    TOTEN  =      -100.37494361 eV

  energy without entropy =     -100.38106786  energy(sigma->0) =     -100.37698502


--------------------------------------------------------------------------------------------------------




--------------------------------------- Iteration      1(  10)  ---------------------------------------


    POTLOK:  cpu time    0.0853: real time    0.0884
    SETDIJ:  cpu time    0.0029: real time    0.0029
    EDDIAG:  cpu time    1.3628: real time    1.3632
  RMM-DIIS:  cpu time    1.2487: real time    1.2492
    ORTHCH:  cpu time    0.1967: real time    0.1967
       DOS:  cpu time    0.0013: real time    0.0013
    CHARGE:  cpu time    0.1139: real time    0.1139
    MIXING:  cpu time    0.0015: real time    0.0015
    --------------------------------------------
      LOOP:  cpu time    3.0131: real time    3.0171

 eigenvalue-minimisations  :  7168
 total energy-change (2. order) : 0.3805035E-01  (-0.8751924E-02)
 number of electron     167.9999964 magnetization 
 augmentation part      -31.1374060 magnetization 

 Broyden mixing:
  rms(total) = 0.35320E-01    rms(broyden)= 0.35320E-01
  rms(prec ) = 0.49263E-01
  weight for this iteration     100.00

 eigenvalues of (default mixing * dielectric matrix)
  average eigenvalue GAMMA=   0.9659
  2.5729  0.9672  0.6536  0.4615  0.1742

 Free energy of the ion-electron system (eV)
  ---------------------------------------------------
  alpha Z        PSCENC =        -5.40434045
  Ewald energy   TEWEN  =       390.04496514
  -Hartree energ DENC   =     -5815.43599634
  -exchange      EXHF   =         0.00000000
  -V(xc)+E(xc)   XCENC  =     -1064.77990735
  PAW double counting   =      2943.98774991    -1603.56705635
  entropy T*S    EENTRO =         0.01349411
  eigenvalues    EBANDS =      -761.66914870
  atomic energy  EATOM  =      5816.47334678
  Solvation  Ediel_sol  =         0.00000000
  ---------------------------------------------------
  free energy    TOTEN  =      -100.33689326 eV

  energy without entropy =     -100.35038737  energy(sigma->0) =     -100.34139129


--------------------------------------------------------------------------------------------------------




--------------------------------------- Iteration      1(  11)  ---------------------------------------


    POTLOK:  cpu time    0.0829: real time    0.0875
    SETDIJ:  cpu time    0.0027: real time    0.0027
    EDDIAG:  cpu time    1.4228: real time    1.4232
  RMM-DIIS:  cpu time    1.3314: real time    1.3320
    ORTHCH:  cpu time    0.1894: real time    0.1895
       DOS:  cpu time    0.0012: real time    0.0012
    CHARGE:  cpu time    0.1124: real time    0.1125
    MIXING:  cpu time    0.0017: real time    0.0017
    --------------------------------------------
      LOOP:  cpu time    3.1446: real time    3.1502

 eigenvalue-minimisations  :  7181
 total energy-change (2. order) : 0.3923948E-02  (-0.8026929E-03)
 number of electron     167.9999964 magnetization 
 augmentation part      -31.1375232 magnetization 

 Broyden mixing:
  rms(total) = 0.17764E-01    rms(broyden)= 0.17763E-01
  rms(prec ) = 0.21206E-01
  weight for this iteration     100.00

 eigenvalues of (default mixing * dielectric matrix)
  average eigenvalue GAMMA=   0.9807
  2.5823  1.1723  0.1742  0.4539  0.6776  0.8239

 Free energy of the ion-electron system (eV)
  ---------------------------------------------------
  alpha Z        PSCENC =        -5.40434045
  Ewald energy   TEWEN  =       390.04496514
  -Hartree energ DENC   =     -5816.73400322
  -exchange      EXHF   =         0.00000000
  -V(xc)+E(xc)   XCENC  =     -1064.73818573
  PAW double counting   =      2943.79456034    -1603.38078721
  entropy T*S    EENTRO =         0.01280830
  eigenvalues    EBANDS =      -760.40133325
  atomic energy  EATOM  =      5816.47334678
  Solvation  Ediel_sol  =         0.00000000
  ---------------------------------------------------
  free energy    TOTEN  =      -100.33296931 eV

  energy without entropy =     -100.34577761  energy(sigma->0) =     -100.33723874


--------------------------------------------------------------------------------------------------------




--------------------------------------- Iteration      1(  12)  ---------------------------------------


    POTLOK:  cpu time    0.0853: real time    0.0884
    SETDIJ:  cpu time    0.0026: real time    0.0027
    EDDIAG:  cpu time    1.3832: real time    1.3834
  RMM-DIIS:  cpu time    1.5116: real time    1.5123
    ORTHCH:  cpu time    0.1885: real time    0.1887
       DOS:  cpu time    0.0014: real time    0.0014
    CHARGE:  cpu time    0.1148: real time    0.1148
    MIXING:  cpu time    0.0014: real time    0.0014
    --------------------------------------------
      LOOP:  cpu time    3.2888: real time    3.2931

 eigenvalue-minimisations  :  7231
 total energy-change (2. order) :-0.1148383E-02  (-0.1423593E-03)
 number of electron     167.9999964 magnetization 
 augmentation part      -31.1377017 magnetization 

 Broyden mixing:
  rms(total) = 0.10697E-01    rms(broyden)= 0.10697E-01
  rms(prec ) = 0.13143E-01
  weight for this iteration     100.00

 eigenvalues of (default mixing * dielectric matrix)
  average eigenvalue GAMMA=   1.0986
  2.6637  1.9493  0.1742  0.9624  0.8643  0.4556  0.6209

 Free energy of the ion-electron system (eV)
  ---------------------------------------------------
  alpha Z        PSCENC =        -5.40434045
  Ewald energy   TEWEN  =       390.04496514
  -Hartree energ DENC   =     -5817.57529528
  -exchange      EXHF   =         0.00000000
  -V(xc)+E(xc)   XCENC  =     -1064.71986341
  PAW double counting   =      2943.11991002    -1602.70727164
  entropy T*S    EENTRO =         0.01384519
  eigenvalues    EBANDS =      -759.57941404
  atomic energy  EATOM  =      5816.47334678
  Solvation  Ediel_sol  =         0.00000000
  ---------------------------------------------------
  free energy    TOTEN  =      -100.33411769 eV

  energy without entropy =     -100.34796288  energy(sigma->0) =     -100.33873276


--------------------------------------------------------------------------------------------------------




--------------------------------------- Iteration      1(  13)  ---------------------------------------


    POTLOK:  cpu time    0.1258: real time    0.1296
    SETDIJ:  cpu time    0.0026: real time    0.0026
    EDDIAG:  cpu time    1.3600: real time    1.3603
  RMM-DIIS:  cpu time    1.2316: real time    1.2325
    ORTHCH:  cpu time    0.1866: real time    0.1866
       DOS:  cpu time    0.0016: real time    0.0016
    CHARGE:  cpu time    0.1125: real time    0.1125
    MIXING:  cpu time    0.0016: real time    0.0016
    --------------------------------------------
      LOOP:  cpu time    3.0223: real time    3.0273

 eigenvalue-minimisations  :  7168
 total energy-change (2. order) :-0.1806263E-02  (-0.1180401E-03)
 number of electron     167.9999964 magnetization 
 augmentation part      -31.1368942 magnetization 

 Broyden mixing:
  rms(total) = 0.87307E-02    rms(broyden)= 0.87306E-02
  rms(prec ) = 0.15194E-01
  weight for this iteration     100.00

 eigenvalues of (default mixing * dielectric matrix)
  average eigenvalue GAMMA=   1.0618
  2.7143  2.2092  0.9286  0.9286  0.1742  0.6192  0.4489  0.4718

 Free energy of the ion-electron system (eV)
  ---------------------------------------------------
  alpha Z        PSCENC =        -5.40434045
  Ewald energy   TEWEN  =       390.04496514
  -Hartree energ DENC   =     -5818.75452581
  -exchange      EXHF   =         0.00000000
  -V(xc)+E(xc)   XCENC  =     -1064.69471415
  PAW double counting   =      2942.35005526    -1601.93742014
  entropy T*S    EENTRO =         0.01369742
  eigenvalues    EBANDS =      -758.42698799
  atomic energy  EATOM  =      5816.47334678
  Solvation  Ediel_sol  =         0.00000000
  ---------------------------------------------------
  free energy    TOTEN  =      -100.33592395 eV

  energy without entropy =     -100.34962137  energy(sigma->0) =     -100.34048976


--------------------------------------------------------------------------------------------------------




--------------------------------------- Iteration      1(  14)  ---------------------------------------


    POTLOK:  cpu time    0.0854: real time    0.0896
    SETDIJ:  cpu time    0.0026: real time    0.0026
    EDDIAG:  cpu time    1.3604: real time    1.3608
  RMM-DIIS:  cpu time    1.2526: real time    1.2534
    ORTHCH:  cpu time    0.1967: real time    0.1969
       DOS:  cpu time    0.0012: real time    0.0012
    CHARGE:  cpu time    0.1181: real time    0.1181
    MIXING:  cpu time    0.0017: real time    0.0017
    --------------------------------------------
      LOOP:  cpu time    3.0188: real time    3.0243

 eigenvalue-minimisations  :  7168
 total energy-change (2. order) :-0.5595913E-03  (-0.2713239E-04)
 number of electron     167.9999964 magnetization 
 augmentation part      -31.1366310 magnetization 

 Broyden mixing:
  rms(total) = 0.94717E-02    rms(broyden)= 0.94715E-02
  rms(prec ) = 0.17942E-01
  weight for this iteration     100.00

 eigenvalues of (default mixing * dielectric matrix)
  average eigenvalue GAMMA=   1.0602
  2.9037  2.4796  1.0137  1.0137  0.7138  0.6302  0.4550  0.1742  0.1583

 Free energy of the ion-electron system (eV)
  ---------------------------------------------------
  alpha Z        PSCENC =        -5.40434045
  Ewald energy   TEWEN  =       390.04496514
  -Hartree energ DENC   =     -5819.07899576
  -exchange      EXHF   =         0.00000000
  -V(xc)+E(xc)   XCENC  =     -1064.68877641
  PAW double counting   =      2942.13155119    -1601.71812745
  entropy T*S    EENTRO =         0.01365772
  eigenvalues    EBANDS =      -758.10976429
  atomic energy  EATOM  =      5816.47334678
  Solvation  Ediel_sol  =         0.00000000
  ---------------------------------------------------
  free energy    TOTEN  =      -100.33648355 eV

  energy without entropy =     -100.35014127  energy(sigma->0) =     -100.34103612


--------------------------------------------------------------------------------------------------------




--------------------------------------- Iteration      1(  15)  ---------------------------------------


    POTLOK:  cpu time    0.0857: real time    0.0884
    SETDIJ:  cpu time    0.0027: real time    0.0027
    EDDIAG:  cpu time    1.3724: real time    1.3728
  RMM-DIIS:  cpu time    1.2341: real time    1.2349
    ORTHCH:  cpu time    0.1927: real time    0.1927
       DOS:  cpu time    0.0012: real time    0.0012
    CHARGE:  cpu time    0.1187: real time    0.1187
    MIXING:  cpu time    0.0017: real time    0.0017
    --------------------------------------------
      LOOP:  cpu time    3.0092: real time    3.0132

 eigenvalue-minimisations  :  7168
 total energy-change (2. order) :-0.3091812E-03  (-0.3378797E-04)
 number of electron     167.9999964 magnetization 
 augmentation part      -31.1357881 magnetization 

 Broyden mixing:
  rms(total) = 0.28044E-02    rms(broyden)= 0.28043E-02
  rms(prec ) = 0.39286E-02
  weight for this iteration     100.00

 eigenvalues of (default mixing * dielectric matrix)
  average eigenvalue GAMMA=   1.1221
  3.1645  2.5696  1.4648  1.0821  0.8464  0.4551  0.6928  0.6167  0.1742  0.1549

 Free energy of the ion-electron system (eV)
  ---------------------------------------------------
  alpha Z        PSCENC =        -5.40434045
  Ewald energy   TEWEN  =       390.04496514
  -Hartree energ DENC   =     -5819.74416024
  -exchange      EXHF   =         0.00000000
  -V(xc)+E(xc)   XCENC  =     -1064.67738859
  PAW double counting   =      2941.68492937    -1601.26900187
  entropy T*S    EENTRO =         0.01360479
  eigenvalues    EBANDS =      -757.45874765
  atomic energy  EATOM  =      5816.47334678
  Solvation  Ediel_sol  =         0.00000000
  ---------------------------------------------------
  free energy    TOTEN  =      -100.33679273 eV

  energy without entropy =     -100.35039751  energy(sigma->0) =     -100.34132766


--------------------------------------------------------------------------------------------------------




--------------------------------------- Iteration      1(  16)  ---------------------------------------


    POTLOK:  cpu time    0.0852: real time    0.0881
    SETDIJ:  cpu time    0.0027: real time    0.0027
    EDDIAG:  cpu time    1.3668: real time    1.3671
  RMM-DIIS:  cpu time    1.2543: real time    1.2551
    ORTHCH:  cpu time    0.1846: real time    0.2023
       DOS:  cpu time    0.0013: real time    0.0013
    CHARGE:  cpu time    0.1142: real time    0.1142
    MIXING:  cpu time    0.0018: real time    0.0018
    --------------------------------------------
      LOOP:  cpu time    3.0109: real time    3.0326

 eigenvalue-minimisations  :  7168
 total energy-change (2. order) :-0.5580988E-03  (-0.1628576E-04)
 number of electron     167.9999964 magnetization 
 augmentation part      -31.1352181 magnetization 

 Broyden mixing:
  rms(total) = 0.22974E-02    rms(broyden)= 0.22974E-02
  rms(prec ) = 0.33633E-02
  weight for this iteration     100.00

 eigenvalues of (default mixing * dielectric matrix)
  average eigenvalue GAMMA=   1.1327
  3.4410  2.6181  1.8505  1.0215  0.8971  0.7305  0.1742  0.6168  0.4550  0.5007
  0.1543

 Free energy of the ion-electron system (eV)
  ---------------------------------------------------
  alpha Z        PSCENC =        -5.40434045
  Ewald energy   TEWEN  =       390.04496514
  -Hartree energ DENC   =     -5820.24213273
  -exchange      EXHF   =         0.00000000
  -V(xc)+E(xc)   XCENC  =     -1064.66829103
  PAW double counting   =      2941.46569703    -1601.04635300
  entropy T*S    EENTRO =         0.01370524
  eigenvalues    EBANDS =      -756.97394780
  atomic energy  EATOM  =      5816.47334678
  Solvation  Ediel_sol  =         0.00000000
  ---------------------------------------------------
  free energy    TOTEN  =      -100.33735083 eV

  energy without entropy =     -100.35105607  energy(sigma->0) =     -100.34191924


--------------------------------------------------------------------------------------------------------




--------------------------------------- Iteration      1(  17)  ---------------------------------------


    POTLOK:  cpu time    0.0873: real time    0.0877
    SETDIJ:  cpu time    0.0027: real time    0.0027
    EDDIAG:  cpu time    1.3921: real time    1.3924
  RMM-DIIS:  cpu time    1.2457: real time    1.2463
    ORTHCH:  cpu time    0.1904: real time    0.1904
       DOS:  cpu time    0.0013: real time    0.0013
    CHARGE:  cpu time    0.1137: real time    0.1137
    MIXING:  cpu time    0.0018: real time    0.0018
    --------------------------------------------
      LOOP:  cpu time    3.0349: real time    3.0364

 eigenvalue-minimisations  :  7094
 total energy-change (2. order) :-0.2687946E-03  (-0.6362431E-05)
 number of electron     167.9999964 magnetization 
 augmentation part      -31.1349622 magnetization 

 Broyden mixing:
  rms(total) = 0.13826E-02    rms(broyden)= 0.13826E-02
  rms(prec ) = 0.20016E-02
  weight for this iteration     100.00

 eigenvalues of (default mixing * dielectric matrix)
  average eigenvalue GAMMA=   1.2019
  4.0932  2.7135  2.1885  1.0550  1.0550  0.8776  0.6681  0.6255  0.4551  0.1742
  0.3634  0.1541

 Free energy of the ion-electron system (eV)
  ---------------------------------------------------
  alpha Z        PSCENC =        -5.40434045
  Ewald energy   TEWEN  =       390.04496514
  -Hartree energ DENC   =     -5820.51631733
  -exchange      EXHF   =         0.00000000
  -V(xc)+E(xc)   XCENC  =     -1064.66301126
  PAW double counting   =      2941.37019865    -1600.94886700
  entropy T*S    EENTRO =         0.01367120
  eigenvalues    EBANDS =      -756.70726533
  atomic energy  EATOM  =      5816.47334678
  Solvation  Ediel_sol  =         0.00000000
  ---------------------------------------------------
  free energy    TOTEN  =      -100.33761962 eV

  energy without entropy =     -100.35129082  energy(sigma->0) =     -100.34217669


--------------------------------------------------------------------------------------------------------




--------------------------------------- Iteration      1(  18)  ---------------------------------------


    POTLOK:  cpu time    0.0841: real time    0.0889
    SETDIJ:  cpu time    0.0027: real time    0.0027
    EDDIAG:  cpu time    1.3658: real time    1.3661
  RMM-DIIS:  cpu time    1.2351: real time    1.2359
    ORTHCH:  cpu time    0.1872: real time    0.1872
       DOS:  cpu time    0.0013: real time    0.0013
    CHARGE:  cpu time    0.1132: real time    0.1132
    MIXING:  cpu time    0.0018: real time    0.0018
    --------------------------------------------
      LOOP:  cpu time    2.9910: real time    2.9971

 eigenvalue-minimisations  :  7025
 total energy-change (2. order) :-0.2983729E-03  (-0.6332998E-05)
 number of electron     167.9999964 magnetization 
 augmentation part      -31.1348297 magnetization 

 Broyden mixing:
  rms(total) = 0.70430E-03    rms(broyden)= 0.70429E-03
  rms(prec ) = 0.94237E-03
  weight for this iteration     100.00

 eigenvalues of (default mixing * dielectric matrix)
  average eigenvalue GAMMA=   1.2510
  4.5206  2.8163  2.2747  1.4694  1.0318  0.9036  0.8141  0.6709  0.6195  0.4551
  0.1742  0.3588  0.1541

 Free energy of the ion-electron system (eV)
  ---------------------------------------------------
  alpha Z        PSCENC =        -5.40434045
  Ewald energy   TEWEN  =       390.04496514
  -Hartree energ DENC   =     -5820.81182922
  -exchange      EXHF   =         0.00000000
  -V(xc)+E(xc)   XCENC  =     -1064.65734357
  PAW double counting   =      2941.29683004    -1600.87342779
  entropy T*S    EENTRO =         0.01355379
  eigenvalues    EBANDS =      -756.41967271
  atomic energy  EATOM  =      5816.47334678
  Solvation  Ediel_sol  =         0.00000000
  ---------------------------------------------------
  free energy    TOTEN  =      -100.33791799 eV

  energy without entropy =     -100.35147178  energy(sigma->0) =     -100.34243592


--------------------------------------------------------------------------------------------------------




--------------------------------------- Iteration      1(  19)  ---------------------------------------


    POTLOK:  cpu time    0.0847: real time    0.0878
    SETDIJ:  cpu time    0.0027: real time    0.0027
    EDDIAG:  cpu time    1.3501: real time    1.3504
  RMM-DIIS:  cpu time    1.2437: real time    1.2442
    ORTHCH:  cpu time    0.1965: real time    0.1966
       DOS:  cpu time    0.0013: real time    0.0013
    CHARGE:  cpu time    0.1129: real time    0.1129
    MIXING:  cpu time    0.0019: real time    0.0019
    --------------------------------------------
      LOOP:  cpu time    2.9940: real time    2.9978

 eigenvalue-minimisations  :  6436
 total energy-change (2. order) :-0.1255866E-03  (-0.2311293E-05)
 number of electron     167.9999964 magnetization 
 augmentation part      -31.1348374 magnetization 

 Broyden mixing:
  rms(total) = 0.41828E-03    rms(broyden)= 0.41828E-03
  rms(prec ) = 0.57602E-03
  weight for this iteration     100.00

 eigenvalues of (default mixing * dielectric matrix)
  average eigenvalue GAMMA=   1.3567
  5.2023  3.1290  2.5787  1.8692  1.1405  0.9596  0.9596  0.7353  0.6629  0.6153
  0.4551  0.1742  0.3585  0.1541

 Free energy of the ion-electron system (eV)
  ---------------------------------------------------
  alpha Z        PSCENC =        -5.40434045
  Ewald energy   TEWEN  =       390.04496514
  -Hartree energ DENC   =     -5820.93357793
  -exchange      EXHF   =         0.00000000
  -V(xc)+E(xc)   XCENC  =     -1064.65547373
  PAW double counting   =      2941.30391878    -1600.88015513
  entropy T*S    EENTRO =         0.01360901
  eigenvalues    EBANDS =      -756.30033603
  atomic energy  EATOM  =      5816.47334678
  Solvation  Ediel_sol  =         0.00000000
  ---------------------------------------------------
  free energy    TOTEN  =      -100.33804358 eV

  energy without entropy =     -100.35165259  energy(sigma->0) =     -100.34257992


--------------------------------------------------------------------------------------------------------




--------------------------------------- Iteration      1(  20)  ---------------------------------------


    POTLOK:  cpu time    0.0859: real time    0.0889
    SETDIJ:  cpu time    0.0027: real time    0.0027
    EDDIAG:  cpu time    1.3804: real time    1.3808
  RMM-DIIS:  cpu time    1.2253: real time    1.2258
    ORTHCH:  cpu time    0.1902: real time    0.1902
       DOS:  cpu time    0.0014: real time    0.0014
    CHARGE:  cpu time    0.1124: real time    0.1125
    MIXING:  cpu time    0.0019: real time    0.0019
    --------------------------------------------
      LOOP:  cpu time    3.0002: real time    3.0041

 eigenvalue-minimisations  :  6345
 total energy-change (2. order) :-0.7401741E-04  (-0.1944588E-05)
 number of electron     167.9999964 magnetization 
 augmentation part      -31.1348352 magnetization 

 Broyden mixing:
  rms(total) = 0.19722E-03    rms(broyden)= 0.19722E-03
  rms(prec ) = 0.27423E-03
  weight for this iteration     100.00

 eigenvalues of (default mixing * dielectric matrix)
  average eigenvalue GAMMA=   1.4010
  5.5800  3.2759  2.6188  2.0110  1.4140  1.0992  0.9293  0.9293  0.7439  0.6554
  0.6169  0.4551  0.1742  0.3585  0.1541

 Free energy of the ion-electron system (eV)
  ---------------------------------------------------
  alpha Z        PSCENC =        -5.40434045
  Ewald energy   TEWEN  =       390.04496514
  -Hartree energ DENC   =     -5821.04843292
  -exchange      EXHF   =         0.00000000
  -V(xc)+E(xc)   XCENC  =     -1064.65359814
  PAW double counting   =      2941.33894130    -1600.91534834
  entropy T*S    EENTRO =         0.01359451
  eigenvalues    EBANDS =      -756.18724548
  atomic energy  EATOM  =      5816.47334678
  Solvation  Ediel_sol  =         0.00000000
  ---------------------------------------------------
  free energy    TOTEN  =      -100.33811760 eV

  energy without entropy =     -100.35171211  energy(sigma->0) =     -100.34264910


--------------------------------------------------------------------------------------------------------




--------------------------------------- Iteration      1(  21)  ---------------------------------------


    POTLOK:  cpu time    0.0828: real time    0.0881
    SETDIJ:  cpu time    0.0027: real time    0.0027
    EDDIAG:  cpu time    1.4724: real time    1.4727
  RMM-DIIS:  cpu time    1.1762: real time    1.1772
    ORTHCH:  cpu time    0.1965: real time    0.1968
       DOS:  cpu time    0.0014: real time    0.0014
    CHARGE:  cpu time    0.1126: real time    0.1127
    MIXING:  cpu time    0.0020: real time    0.0020
    --------------------------------------------
      LOOP:  cpu time    3.0465: real time    3.0536

 eigenvalue-minimisations  :  5447
 total energy-change (2. order) :-0.1407219E-04  (-0.3639394E-06)
 number of electron     167.9999964 magnetization 
 augmentation part      -31.1348193 magnetization 

 Broyden mixing:
  rms(total) = 0.11886E-03    rms(broyden)= 0.11886E-03
  rms(prec ) = 0.16936E-03
  weight for this iteration     100.00

 eigenvalues of (default mixing * dielectric matrix)
  average eigenvalue GAMMA=   1.4692
  5.9377  3.5992  2.7203  2.4084  1.7741  1.1617  0.9498  0.9498  0.8339  0.7543
  0.6590  0.6175  0.4551  0.1742  0.3585  0.1541

 Free energy of the ion-electron system (eV)
  ---------------------------------------------------
  alpha Z        PSCENC =        -5.40434045
  Ewald energy   TEWEN  =       390.04496514
  -Hartree energ DENC   =     -5821.08831382
  -exchange      EXHF   =         0.00000000
  -V(xc)+E(xc)   XCENC  =     -1064.65323659
  PAW double counting   =      2941.34332573    -1600.91995743
  entropy T*S    EENTRO =         0.01358634
  eigenvalues    EBANDS =      -756.14750736
  atomic energy  EATOM  =      5816.47334678
  Solvation  Ediel_sol  =         0.00000000
  ---------------------------------------------------
  free energy    TOTEN  =      -100.33813167 eV

  energy without entropy =     -100.35171800  energy(sigma->0) =     -100.34266045


--------------------------------------------------------------------------------------------------------




--------------------------------------- Iteration      1(  22)  ---------------------------------------


    POTLOK:  cpu time    0.0855: real time    0.0899
    SETDIJ:  cpu time    0.0028: real time    0.0028
    EDDIAG:  cpu time    1.3569: real time    1.3577
  RMM-DIIS:  cpu time    1.1555: real time    1.1566
    ORTHCH:  cpu time    0.1963: real time    0.1965
       DOS:  cpu time    0.0013: real time    0.0013
    CHARGE:  cpu time    0.1675: real time    0.1680
    MIXING:  cpu time    0.0020: real time    0.0020
    --------------------------------------------
      LOOP:  cpu time    2.9678: real time    2.9749

 eigenvalue-minimisations  :  4930
 total energy-change (2. order) :-0.6378603E-05  (-0.1822521E-06)
 number of electron     167.9999964 magnetization 
 augmentation part      -31.1347876 magnetization 

 Broyden mixing:
  rms(total) = 0.66659E-04    rms(broyden)= 0.66658E-04
  rms(prec ) = 0.95806E-04
  weight for this iteration     100.00

 eigenvalues of (default mixing * dielectric matrix)
  average eigenvalue GAMMA=   1.4842
  6.1618  3.8447  2.8471  2.4585  1.8401  1.2612  1.0294  0.9513  0.9513  0.4551
  0.7641  0.6170  0.6619  0.7009  0.1742  0.3585  0.1541

 Free energy of the ion-electron system (eV)
  ---------------------------------------------------
  alpha Z        PSCENC =        -5.40434045
  Ewald energy   TEWEN  =       390.04496514
  -Hartree energ DENC   =     -5821.11984575
  -exchange      EXHF   =         0.00000000
  -V(xc)+E(xc)   XCENC  =     -1064.65305061
  PAW double counting   =      2941.33965022    -1600.91640538
  entropy T*S    EENTRO =         0.01358243
  eigenvalues    EBANDS =      -756.11604042
  atomic energy  EATOM  =      5816.47334678
  Solvation  Ediel_sol  =         0.00000000
  ---------------------------------------------------
  free energy    TOTEN  =      -100.33813805 eV

  energy without entropy =     -100.35172048  energy(sigma->0) =     -100.34266552


--------------------------------------------------------------------------------------------------------




--------------------------------------- Iteration      1(  23)  ---------------------------------------


    POTLOK:  cpu time    0.0878: real time    0.0905
    SETDIJ:  cpu time    0.0027: real time    0.0027
    EDDIAG:  cpu time    1.3583: real time    1.3600
  RMM-DIIS:  cpu time    1.1175: real time    1.1186
    ORTHCH:  cpu time    0.1964: real time    0.1964
       DOS:  cpu time    0.0013: real time    0.0013
    CHARGE:  cpu time    0.1153: real time    0.1153
    MIXING:  cpu time    0.0021: real time    0.0021
    --------------------------------------------
      LOOP:  cpu time    2.8814: real time    2.8869

 eigenvalue-minimisations  :  3323
 total energy-change (2. order) :-0.1381910E-05  (-0.3073907E-07)
 number of electron     167.9999964 magnetization 
 augmentation part      -31.1347796 magnetization 

 Broyden mixing:
  rms(total) = 0.44926E-04    rms(broyden)= 0.44926E-04
  rms(prec ) = 0.62309E-04
  weight for this iteration     100.00

 eigenvalues of (default mixing * dielectric matrix)
  average eigenvalue GAMMA=   1.5314
  6.4470  4.1482  2.9901  2.4857  2.1282  1.7035  1.1361  0.9526  0.9526  0.8389
  0.4551  0.7523  0.6604  0.6199  0.6085  0.3585  0.1742  0.1541

 Free energy of the ion-electron system (eV)
  ---------------------------------------------------
  alpha Z        PSCENC =        -5.40434045
  Ewald energy   TEWEN  =       390.04496514
  -Hartree energ DENC   =     -5821.13058777
  -exchange      EXHF   =         0.00000000
  -V(xc)+E(xc)   XCENC  =     -1064.65294515
  PAW double counting   =      2941.33554004    -1600.91226368
  entropy T*S    EENTRO =         0.01358309
  eigenvalues    EBANDS =      -756.10543743
  atomic energy  EATOM  =      5816.47334678
  Solvation  Ediel_sol  =         0.00000000
  ---------------------------------------------------
  free energy    TOTEN  =      -100.33813943 eV

  energy without entropy =     -100.35172252  energy(sigma->0) =     -100.34266713


--------------------------------------------------------------------------------------------------------




--------------------------------------- Iteration      1(  24)  ---------------------------------------


    POTLOK:  cpu time    0.0854: real time    0.0881
    SETDIJ:  cpu time    0.0027: real time    0.0027
    EDDIAG:  cpu time    1.4203: real time    1.4231
  RMM-DIIS:  cpu time    1.1097: real time    1.1102
    ORTHCH:  cpu time    0.1936: real time    0.1938
       DOS:  cpu time    0.0012: real time    0.0012
    --------------------------------------------
      LOOP:  cpu time    2.8129: real time    2.8191

 eigenvalue-minimisations  :  3162
 total energy-change (2. order) :-0.8723464E-06  (-0.1972006E-07)
 number of electron     167.9999964 magnetization 
 augmentation part      -31.1347796 magnetization 

 Free energy of the ion-electron system (eV)
  ---------------------------------------------------
  alpha Z        PSCENC =        -5.40434045
  Ewald energy   TEWEN  =       390.04496514
  -Hartree energ DENC   =     -5821.13785943
  -exchange      EXHF   =         0.00000000
  -V(xc)+E(xc)   XCENC  =     -1064.65281905
  PAW double counting   =      2941.33009790    -1600.90671653
  entropy T*S    EENTRO =         0.01358589
  eigenvalues    EBANDS =      -756.09840055
  atomic energy  EATOM  =      5816.47334678
  Solvation  Ediel_sol  =         0.00000000
  ---------------------------------------------------
  free energy    TOTEN  =      -100.33814030 eV

  energy without entropy =     -100.35172619  energy(sigma->0) =     -100.34266893


--------------------------------------------------------------------------------------------------------




 average (electrostatic) potential at core
  the test charge radii are     1.1712  1.1897
  (the norm of the test charge is              1.0000)
       1 -93.1040       2 -92.9632       3 -92.9384       4 -92.8714       5 -92.6873
       6 -92.8983       7 -92.8714       8 -92.9384       9 -92.9632      10 -93.1040
[...]
     61      -1.5104      2.00000
     62      -1.4432      2.00000
     63      -1.3771      2.00000
     64      -1.3056      2.00000
     65      -1.1867      2.00000
     66      -1.1319      2.00000
     67      -1.0639      2.00000
     68      -0.8096      2.00000
     69      -0.7116      2.00000
     70      -0.5079      2.00000
     71      -0.4692      2.00000
     72      -0.4480      2.00000
     73      -0.4178      2.00000
     74      -0.3379      2.00000
     75      -0.2756      2.00000
     76      -0.1309      2.00040
     77      -0.0931      2.00104
     78      -0.0689      2.00185
     79       0.1480      2.05829
     80       0.1709      2.06680
     81       0.2342      2.05677
     82       0.3684      1.57263
     83       0.4134      1.23200
     84       0.5034      0.50047
     85       0.9904     -0.00072
     86       1.0082     -0.00046
     87       1.0809     -0.00006
     88       1.1176     -0.00002
     89       1.4699     -0.00000
     90       1.5361     -0.00000
     91       1.5561     -0.00000
     92       1.7619     -0.00000
     93       1.8044     -0.00000
     94       1.9414     -0.00000
     95       2.0547     -0.00000
     96       2.0639     -0.00000
     97       2.1366     -0.00000
     98       2.2479     -0.00000
     99       2.2699     -0.00000
    100       2.3117     -0.00000
    101       2.3371     -0.00000
    102       2.3761     -0.00000
    103       2.4078     -0.00000
    104       2.4377     -0.00000
    105       2.5419     -0.00000
    106       2.5856     -0.00000
    107       2.7025     -0.00000
    108       2.8013     -0.00000
    109       2.9036     -0.00000
    110       2.9659     -0.00000
    111       3.0371     -0.00000
    112       3.1485     -0.00000
    113       3.2754     -0.00000
    114       3.3174     -0.00000
    115       3.3954     -0.00000
    116       3.4728     -0.00000
    117       3.7651     -0.00000
    118       3.8186     -0.00000
    119       3.9326     -0.00000
    120       4.0483     -0.00000
    121       4.4918     -0.00000
    122       4.6681     -0.00000
    123       4.8559     -0.00000
    124       4.8753     -0.00000
    125       4.9440     -0.00000
    126       5.0697     -0.00000
    127       5.1724     -0.00000
    128       5.2371     -0.00000


--------------------------------------------------------------------------------------------------------


 soft charge-density along one line, spin component           1
         0         1         2         3         4         5         6         7         8         9
 total charge-density along one line
 
 pseudopotential strength for first ion, spin component:           1
 41.639  -0.039  -0.028   0.041   0.024  -0.000   0.000   0.000
 -0.039   1.459  -0.001   0.001   0.001   0.000  -0.000  -0.000
 -0.028  -0.001   9.545   0.000   0.000   0.000   0.000   0.000
  0.041   0.001   0.000   9.541  -0.003   0.000   0.000  -0.000
  0.024   0.001   0.000  -0.003   9.545   0.000  -0.000   0.000
 -0.000   0.000   0.000   0.000   0.000   0.007  -0.000  -0.000
  0.000  -0.000   0.000   0.000  -0.000  -0.000   0.007   0.000
  0.000  -0.000   0.000  -0.000   0.000  -0.000   0.000   0.007
  0.000  -0.000   0.002  -0.001  -0.002   0.000  -0.000  -0.000
  0.001  -0.000   0.004  -0.003  -0.001   0.000  -0.000  -0.000
 -0.004   0.000   0.001   0.005  -0.001   0.000   0.001  -0.000
 -0.006   0.000  -0.001   0.003   0.004  -0.000   0.000   0.000
 -0.000   0.000   0.003   0.000   0.002   0.000   0.000   0.000
 total augmentation occupancy for first ion, spin component:           1
  2.003  -0.012   0.114  -0.176  -0.102  -0.068   0.099   0.057   0.001   0.001  -0.000  -0.002   0.002
 -0.012   0.009  -0.031   0.048   0.027   0.015  -0.029  -0.017   0.000   0.000  -0.001  -0.002  -0.000
  0.114  -0.031   0.940  -0.012  -0.007  -0.356   0.014   0.008   0.031   0.054   0.024   0.040  -0.005
 -0.176   0.048  -0.012   1.059   0.107   0.015  -0.334   0.037   0.031  -0.018   0.039   0.006  -0.006
 -0.102   0.027  -0.007   0.107   0.936   0.008   0.037  -0.377  -0.053   0.031  -0.027   0.036   0.025
 -0.068   0.015  -0.356   0.015   0.008   0.237   0.005   0.003  -0.020  -0.034  -0.013  -0.022   0.004
  0.099  -0.029   0.014  -0.334   0.037   0.005   0.214  -0.032  -0.022   0.006  -0.019  -0.002   0.007
  0.057  -0.017   0.008   0.037  -0.377   0.003  -0.032   0.251   0.032  -0.022   0.017  -0.020  -0.012
  0.001   0.000   0.031   0.031  -0.053  -0.020  -0.022   0.032   0.014  -0.002   0.003   0.001  -0.002
  0.001   0.000   0.054  -0.018   0.031  -0.034   0.006  -0.022  -0.002   0.012  -0.000   0.004  -0.001
 -0.000  -0.001   0.024   0.039  -0.027  -0.013  -0.019   0.017   0.003  -0.000   0.008   0.000  -0.001
 -0.002  -0.002   0.040   0.006   0.036  -0.022  -0.002  -0.020   0.001   0.004   0.000   0.009  -0.000
  0.002  -0.000  -0.005  -0.006   0.025   0.004   0.007  -0.012  -0.002  -0.001  -0.001  -0.000   0.007


------------------------ aborting loop because EDIFF is reached ----------------------------------------


 


 total charge     
 
# of ion       s       p       d       tot
------------------------------------------
    1        1.232   1.079   0.028   2.340
    2        1.236   1.067   0.029   2.331
    3        1.248   1.041   0.040   2.330
    4        1.254   0.989   0.044   2.287
    5        1.276   0.974   0.044   2.295
    6        1.261   0.996   0.040   2.297
    7        1.255   0.990   0.044   2.290
    8        1.246   1.047   0.039   2.331
    9        1.235   1.070   0.031   2.336
   10        1.231   1.081   0.029   2.341
   11        1.259   1.009   0.041   2.309
   12        1.273   0.968   0.041   2.281
   13        1.416   1.869   0.030   3.315
   14        1.409   1.877   0.029   3.316
   15        1.396   1.907   0.037   3.340
   16        1.414   1.865   0.024   3.303
   17        1.402   1.907   0.021   3.329
   18        1.408   1.883   0.026   3.316
   19        1.393   1.932   0.018   3.342
   20        1.403   1.906   0.024   3.333
   21        1.396   1.922   0.021   3.339
   22        1.401   1.912   0.022   3.335
   23        1.415   1.863   0.025   3.303
   24        1.397   1.911   0.020   3.328
   25        1.411   1.875   0.030   3.316
   26        1.414   1.883   0.030   3.327
   27        1.405   1.893   0.024   3.322
   28        1.413   1.855   0.021   3.290
   29        1.394   1.926   0.018   3.338
   30        1.393   1.912   0.033   3.338
--------------------------------------------------
tot         40.285  46.411   0.901  87.597
 
    CHARGE:  cpu time    0.1115: real time    0.1115
    FORLOC:  cpu time    0.0016: real time    0.0016
    FORNL :  cpu time    0.3667: real time    0.3667
    STRESS:  cpu time    1.7741: real time    1.7747
    FORCOR:  cpu time    0.0507: real time    0.0510
    FORHAR:  cpu time    0.0106: real time    0.0106
    MIXING:  cpu time    0.0006: real time    0.0007
    OFIELD:  cpu time    0.0000: real time    0.0000

  FORCE on cell =-STRESS in cart. coord.  units (eV):
  Direction    XX          YY          ZZ          XY          YZ          ZX
  --------------------------------------------------------------------------------------
  Alpha Z    -5.40434    -5.40434    -5.40434
  Ewald    1270.54348  3768.41088 -4665.26678   -38.89198   -67.36173 -5140.56236
  Hartree  2908.79659  5224.35870 -2331.27893   -30.22159   -52.34543 -4538.03828
  E(xc)    -657.27424  -656.96658  -659.42293    -0.55230    -0.95662    -1.86087
  Local   -7117.98710-11926.83758  4038.01771    70.20595   121.59977  9661.38213
  n-local  2974.61704  2970.81133  2986.51720     3.07569     5.32902    10.30732
  augment  -684.27270  -682.26930  -688.96703    -0.10351    -0.17999    -4.06347
  Kinetic  1303.01229  1299.38900  1322.16516    -4.14895    -7.18712    16.58817
  Fock        0.00000     0.00000     0.00000     0.00000     0.00000     0.00000
  -------------------------------------------------------------------------------------
  Total      -7.97054    -8.50789    -3.63838    -0.63640    -1.10227     3.75175
  in kB      -6.27250    -6.69538    -2.86327    -0.50082    -0.86745     2.95248
  external pressure =       -5.28 kB  Pullay stress =        0.00 kB


 VOLUME and BASIS-vectors are now :
 -----------------------------------------------------------------------------
  energy-cutoff  :      300.00
  volume of cell :     2035.91
      direct lattice vectors                 reciprocal lattice vectors
     3.750449470  0.000000000 -2.165322957     0.266634708 -0.000000000  0.000000000
     0.000000000 31.337301284  0.000000000     0.000000000  0.031910853  0.000000000
     0.000000000  0.000000000 17.322583980     0.033329338 -0.000000000  0.057728108

  length of vectors
     4.330645995 31.337301284 17.322583980     0.266634708  0.031910853  0.066658677


 FORCES acting on ions
    electron-ion (+dipol)            ewald-force                    non-local-force                 convergence-correction
 -----------------------------------------------------------------------------------------------
   0.101E+03 0.523E+00 0.174E+03   -.104E+03 0.384E+01 -.180E+03   0.369E+01 -.443E+01 0.639E+01   0.101E-02 -.320E-03 0.175E-02
   0.865E+02 -.261E+02 0.150E+03   -.909E+02 0.305E+02 -.157E+03   0.434E+01 -.432E+01 0.751E+01   -.113E-03 -.101E-02 -.195E-03
   0.166E+02 -.237E+02 0.287E+02   -.157E+02 0.307E+02 -.272E+02   -.853E+00 -.699E+01 -.148E+01   -.378E-03 -.950E-03 -.655E-03
   0.349E+02 -.584E+01 0.605E+02   -.334E+02 0.437E+01 -.578E+02   -.153E+01 0.145E+01 -.266E+01   0.144E-03 0.121E-02 0.250E-03
   0.675E+02 0.425E+02 0.117E+03   -.686E+02 -.450E+02 -.119E+03   0.102E+01 0.249E+01 0.176E+01   -.604E-04 -.397E-03 -.105E-03
   0.636E+02 -.895E+01 0.110E+03   -.632E+02 0.246E+01 -.109E+03   -.285E+00 0.697E+01 -.494E+00   0.457E-03 0.713E-03 0.791E-03
   -.353E+02 0.856E+01 -.612E+02   0.338E+02 -.755E+01 0.586E+02   0.152E+01 -.969E+00 0.263E+01   -.327E-03 0.925E-03 -.567E-03
   -.202E+02 0.283E+02 -.350E+02   0.196E+02 -.354E+02 0.339E+02   0.648E+00 0.722E+01 0.112E+01   -.486E-03 -.800E-03 -.841E-03
   -.887E+02 0.277E+02 -.154E+03   0.931E+02 -.324E+02 0.161E+03   -.436E+01 0.474E+01 -.755E+01   -.303E-03 -.533E-03 -.525E-03
   -.100E+03 0.865E+01 -.174E+03   0.104E+03 -.130E+02 0.180E+03   -.364E+01 0.439E+01 -.631E+01   -.374E-03 -.123E-03 -.647E-03
   -.666E+02 -.690E+01 -.115E+03   0.673E+02 0.153E+02 0.117E+03   -.731E+00 -.847E+01 -.127E+01   0.627E-03 -.338E-03 0.109E-02
   -.655E+02 -.436E+02 -.113E+03   0.663E+02 0.453E+02 0.115E+03   -.827E+00 -.171E+01 -.143E+01   -.422E-03 0.710E-03 -.730E-03
   0.401E+02 -.148E+02 0.694E+02   -.401E+02 0.200E+02 -.695E+02   0.762E-01 -.532E+01 0.132E+00   -.379E-03 -.304E-03 -.656E-03
   0.815E+02 0.503E+02 0.141E+03   -.803E+02 -.556E+02 -.139E+03   -.118E+01 0.534E+01 -.205E+01   0.287E-03 0.449E-03 0.498E-03
   0.291E+02 -.119E+02 0.504E+02   -.291E+02 0.121E+02 -.504E+02   0.233E-01 -.222E+00 0.403E-01   0.500E-05 0.572E-03 0.860E-05
   0.768E+02 -.123E+02 0.133E+03   -.777E+02 0.161E+02 -.135E+03   0.940E+00 -.378E+01 0.163E+01   0.321E-03 0.990E-03 0.556E-03
   0.112E+03 0.638E+01 0.194E+03   -.114E+03 -.788E+01 -.198E+03   0.235E+01 0.154E+01 0.407E+01   0.421E-03 -.109E-03 0.729E-03
   0.806E+02 0.734E+01 0.140E+03   -.811E+02 -.130E+02 -.141E+03   0.545E+00 0.559E+01 0.945E+00   -.383E-03 -.976E-03 -.663E-03
   0.110E+03 -.469E+02 0.191E+03   -.112E+03 0.509E+02 -.195E+03   0.205E+01 -.406E+01 0.355E+01   0.110E-03 0.138E-02 0.190E-03
   0.401E+02 0.500E+02 0.694E+02   -.412E+02 -.550E+02 -.714E+02   0.115E+01 0.499E+01 0.200E+01   0.248E-03 -.964E-03 0.430E-03
   0.122E+03 0.675E+01 0.212E+03   -.125E+03 -.621E+01 -.216E+03   0.243E+01 -.359E+00 0.421E+01   -.145E-03 0.375E-03 -.252E-03
   -.113E+03 -.284E+01 -.196E+03   0.115E+03 0.447E+01 0.200E+03   -.232E+01 -.161E+01 -.402E+01   0.113E-03 -.568E-04 0.195E-03
   -.759E+02 0.111E+02 -.131E+03   0.769E+02 -.145E+02 0.133E+03   -.944E+00 0.347E+01 -.163E+01   -.236E-03 0.870E-03 -.409E-03
   -.121E+03 -.101E+02 -.210E+03   0.124E+03 0.986E+01 0.214E+03   -.248E+01 0.244E+00 -.429E+01   -.912E-03 0.681E-03 -.158E-02
   -.801E+02 -.381E+02 -.139E+03   0.789E+02 0.433E+02 0.137E+03   0.121E+01 -.527E+01 0.210E+01   -.681E-03 0.327E-03 -.118E-02
   -.409E+02 0.226E+02 -.709E+02   0.408E+02 -.279E+02 0.706E+02   0.108E+00 0.533E+01 0.187E+00   -.353E-03 -.993E-03 -.612E-03
   -.824E+02 -.146E+02 -.143E+03   0.827E+02 0.205E+02 0.143E+03   -.327E+00 -.576E+01 -.566E+00   -.202E-03 -.109E-02 -.349E-03
   -.267E+02 -.474E+02 -.463E+02   0.270E+02 0.520E+02 0.468E+02   -.410E+00 -.508E+01 -.709E+00   -.199E-04 0.252E-04 -.345E-04
   -.110E+03 0.283E+02 -.190E+03   0.112E+03 -.325E+02 0.193E+03   -.200E+01 0.414E+01 -.347E+01   0.403E-03 0.177E-03 0.698E-03
   -.355E+02 0.146E+02 -.616E+02   0.360E+02 -.156E+02 0.624E+02   -.462E+00 0.103E+01 -.801E+00   0.390E-03 0.506E-03 0.675E-03
 -----------------------------------------------------------------------------------------------
   0.241E+00 -.585E+00 0.452E+00   0.213E-13 -.711E-14 0.163E-12   -.255E+00 0.584E+00 -.442E+00   -.123E-02 0.949E-03 -.214E-02
 
 
 POSITION                                       TOTAL-FORCE (eV/Angst)
 -----------------------------------------------------------------------------------
      2.66502     29.31852     -0.43647         0.029404     -0.062445      0.050929
      2.64688     22.70886     -0.46789        -0.010123      0.031406     -0.017533
     -0.04433     18.59129      3.53210        -0.018935     -0.027197     -0.032796
     -0.20691     12.53018      3.25049         0.002785     -0.022404      0.004824
      1.27663      8.76603      1.48941        -0.019652      0.048698     -0.034038
      1.25015      1.98657      1.44355         0.170962      0.486268      0.296116
      2.74072     29.17908      4.02528        -0.001790      0.040567     -0.003101
      2.69002     23.18785      3.93747        -0.036165      0.016253     -0.062639
      0.00000     18.90497      7.93952         0.064474      0.051380      0.111673
     -0.16145     12.41866      7.65987        -0.014628      0.035493     -0.025336
      1.26573      8.06180      5.80118         0.010803     -0.040547      0.018711
      1.21267      1.74346      5.70928        -0.006451     -0.008503     -0.011173
      0.00000     24.58798      3.60887        -0.015971     -0.160217     -0.027663
      1.27591     27.68582      1.48818         0.006176     -0.013359      0.010697
      0.06096     -0.22110      3.71445         0.001947      0.004074      0.003372
      1.27387     14.39636      1.48463        -0.000189     -0.010325     -0.000327
      2.62472     17.03085     -0.50628         0.033014      0.043851      0.057181
      0.99221     20.82480      0.99678         0.025934     -0.036511      0.044920
      2.42579      3.29747     -0.85083        -0.020441     -0.036318     -0.035405
     -0.01664      6.83644      3.58006         0.005274     -0.003262      0.009134
      2.50030     10.44576     -0.72178         0.012141      0.180226      0.021029
     -0.01018     24.80536      7.92188         0.021613      0.019449      0.037436
      1.28403     27.33655      5.83289         0.009385     -0.019630      0.016256
      0.00000      0.00000      7.93952        -0.038082     -0.028595     -0.065961
      1.22665     14.04566      5.73350        -0.001892     -0.013849     -0.003278
      2.61842     17.15641      3.81347        -0.029808      0.006053     -0.051629
      1.65969     20.77685      6.48355        -0.040936      0.077370     -0.070903
      2.50030      3.69643      3.60887        -0.117999     -0.524716     -0.204380
      0.00227      6.55519      7.94344        -0.025564     -0.024834     -0.044278
      2.48598     10.53019      3.58407         0.004712     -0.008377      0.008161
 -----------------------------------------------------------------------------------
    total drift:                               -0.015599     -0.000475      0.007791


--------------------------------------------------------------------------------------------------------



  FREE ENERGIE OF THE ION-ELECTRON SYSTEM (eV)
  ---------------------------------------------------
  free  energy   TOTEN  =      -103.86205551 eV

  energy  without entropy=     -103.86607949  energy(sigma->0) =     -103.86339684
 
 d Force = 0.8687698E-02[ 0.607E-02, 0.113E-01]  d Energy = 0.8698574E-02-0.109E-04
 d Force =-0.9110698E+01[-0.916E+01,-0.906E+01]  d Ewald  =-0.9110653E+01-0.453E-04


--------------------------------------------------------------------------------------------------------


    POTLOK:  cpu time    0.0662: real time    0.0662


--------------------------------------------------------------------------------------------------------


 Conjugate gradient step on ions:
 trial-energy change:   -0.008699  1 .order   -0.008688   -0.011305   -0.006071
  (g-gl).g = 0.678E-02      g.g   = 0.684E-02  gl.gl    = 0.700E-02
 g(Force)  = 0.684E-02   g(Stress)= 0.000E+00 ortho     =-0.332E-04
 gamma     =   0.96853
 trial     =   1.66098
 opt step  =   3.58739  (harmonic =   3.58739) maximal distance =0.02814399
 next E    =  -103.865565   (d E  =  -0.01221)


--------------------------------------------------------------------------------------------------------


 writing wavefunctions
     LOOP+:  cpu time   39.1926: real time   39.4362
    4ORBIT:  cpu time    0.0000: real time    0.0000
 


 total charge     
 
# of ion       s       p       d       tot
------------------------------------------
    1        1.232   1.079   0.028   2.340
    2        1.236   1.067   0.029   2.331
    3        1.248   1.041   0.040   2.330
    4        1.254   0.989   0.044   2.287
    5        1.276   0.974   0.044   2.295
    6        1.261   0.996   0.040   2.297
    7        1.255   0.990   0.044   2.290
    8        1.246   1.047   0.039   2.331
    9        1.235   1.070   0.031   2.336
   10        1.231   1.081   0.029   2.341
   11        1.259   1.009   0.041   2.309
   12        1.273   0.968   0.041   2.281
   13        1.416   1.869   0.030   3.315
   14        1.409   1.877   0.029   3.316
   15        1.396   1.907   0.037   3.340
   16        1.414   1.865   0.024   3.303
   17        1.402   1.907   0.021   3.329
   18        1.408   1.883   0.026   3.316
   19        1.393   1.932   0.018   3.342
   20        1.403   1.906   0.024   3.333
   21        1.396   1.922   0.021   3.339
   22        1.401   1.912   0.022   3.335
   23        1.415   1.863   0.025   3.303
   24        1.397   1.911   0.020   3.328
   25        1.411   1.875   0.030   3.316
   26        1.414   1.883   0.030   3.327
   27        1.405   1.893   0.024   3.322
   28        1.413   1.855   0.021   3.290
   29        1.394   1.926   0.018   3.338
   30        1.393   1.912   0.033   3.338
--------------------------------------------------
tot         40.285  46.411   0.901  87.597
 

 total amount of memory used by VASP MPI-rank0    85025. kBytes
=======================================================================

   base      :      30000. kBytes
   nonl-proj :      38731. kBytes
   fftplans  :       5190. kBytes
   grid      :       8231. kBytes
   one-center:         64. kBytes
   wavefun   :       2809. kBytes
 
  
  
 General timing and accounting informations for this job:
 ========================================================
  
                  Total CPU time used (sec):     1148.134
                            User time (sec):     1121.114
                          System time (sec):       27.020
                         Elapsed time (sec):     1160.965
  
                   Maximum memory used (kb):      293224.
                   Average memory used (kb):           0.
  
                          Minor page faults:       347258
                          Major page faults:           47
                 Voluntary context switches:        21386
