 vasp.5.4.4.18Apr17-6-g9f103f2a35 (build Aug 29 2022 10:07:22) complex          
  
 executed on           IFC91_ompi date 2022.09.30  23:56:30
 running on  512 total cores
 distrk:  each k-point on  512 cores,    1 groups
 distr:  one band on NCORES_PER_BAND=   4 cores,  128 groups


--------------------------------------------------------------------------------------------------------


 INCAR:
 POTCAR:   PAW_PBE Sb 06Sep2000                   
 POTCAR:   PAW_PBE Te 08Apr2002                   

 ----------------------------------------------------------------------------- 
|                                                                             |
|           W    W    AA    RRRRR   N    N  II  N    N   GGGG   !!!           |
|           W    W   A  A   R    R  NN   N  II  NN   N  G    G  !!!           |
|           W    W  A    A  R    R  N N  N  II  N N  N  G       !!!           |
|           W WW W  AAAAAA  RRRRR   N  N N  II  N  N N  G  GGG   !            |
|           WW  WW  A    A  R   R   N   NN  II  N   NN  G    G                |
|           W    W  A    A  R    R  N    N  II  N    N   GGGG   !!!           |
|                                                                             |
|      For optimal performance we recommend to set                            |
|        NCORE= 4 - approx SQRT( number of cores)                             |
|      NCORE specifies how many cores store one orbital (NPAR=cpu/NCORE).     |
|      This setting can  greatly improve the performance of VASP for DFT.     |
|      The default,   NCORE=1            might be grossly inefficient         |
|      on modern multi-core architectures or massively parallel machines.     |
|      Do your own testing !!!!                                               |
|      Unfortunately you need to use the default for GW and RPA calculations. |
|      (for HF NCORE is supported but not extensively tested yet)             |
|                                                                             |
 ----------------------------------------------------------------------------- 

 POTCAR:   PAW_PBE Sb 06Sep2000                   
   VRHFIN =Sb: s2p3                                                             
   LEXCH  = PE                                                                  
   EATOM  =   149.8037 eV,   11.0103 Ry                                         
                                                                                
   TITEL  = PAW_PBE Sb 06Sep2000                                                
   LULTRA =        F    use ultrasoft PP ?                                      
   IUNSCR =        1    unscreen: 0-lin 1-nonlin 2-no                           
   RPACOR =    2.200    partial core radius                                     
   POMASS =  121.750; ZVAL   =    5.000    mass and valenz                      
   RCORE  =    2.300    outmost cutoff radius                                   
   RWIGS  =    2.980; RWIGS  =    1.577    wigner-seitz radius (au A)           
   ENMAX  =  172.037; ENMIN  =  129.028 eV                                      
   ICORE  =        3    local potential                                         
   LCOR   =        T    correct aug charges                                     
   LPAW   =        T    paw PP                                                  
   EAUG   =  380.513                                                            
   DEXC   =    -.415                                                            
   RMAX   =    3.515    core radius for proj-oper                               
   RAUG   =    1.300    factor for augmentation sphere                          
   RDEP   =    2.360    radius for radial grids                                 
   QCUT   =   -3.556; QGAM   =    7.112    optimization parameters              
                                                                                
   Description                                                                  
     l     E      TYP  RCUT    TYP  RCUT                                        
     0   .000     23  2.300                                                     
     0  1.000     23  2.300                                                     
     1   .000     23  2.300                                                     
     1   .000     23  2.300                                                     
     2   .000     23  2.300                                                     
     3  -.100     23  2.300                                                     
  local pseudopotential read in
  partial core-charges read in
  atomic valenz-charges read in
  non local Contribution for L=           0  read in
    real space projection operators read in
  non local Contribution for L=           0  read in
    real space projection operators read in
  non local Contribution for L=           1  read in
    real space projection operators read in
  non local Contribution for L=           1  read in
    real space projection operators read in
  non local Contribution for L=           2  read in
    real space projection operators read in
    PAW grid and wavefunctions read in
 
   number of l-projection  operators is LMAX  =           5
   number of lm-projection operators is LMMAX =          13
 
 POTCAR:   PAW_PBE Te 08Apr2002                   
   VRHFIN =Te: s2p4                                                             
   LEXCH  = PE                                                                  
   EATOM  =   223.2721 eV,   16.4100 Ry                                         
                                                                                
   TITEL  = PAW_PBE Te 08Apr2002                                                
   LULTRA =        F    use ultrasoft PP ?                                      
   IUNSCR =        1    unscreen: 0-lin 1-nonlin 2-no                           
   RPACOR =    2.200    partial core radius                                     
   POMASS =  127.600; ZVAL   =    6.000    mass and valenz                      
   RCORE  =    2.300    outmost cutoff radius                                   
   RWIGS  =    2.900; RWIGS  =    1.535    wigner-seitz radius (au A)           
   ENMAX  =  174.982; ENMIN  =  131.236 eV                                      
   ICORE  =        3    local potential                                         
   LCOR   =        T    correct aug charges                                     
   LPAW   =        T    paw PP                                                  
   EAUG   =  368.792                                                            
   DEXC   =    -.169                                                            
   RMAX   =    3.486    core radius for proj-oper                               
   RAUG   =    1.300    factor for augmentation sphere                          
   RDEP   =    2.397    radius for radial grids                                 
   QCUT   =   -3.586; QGAM   =    7.172    optimization parameters              
                                                                                
   Description                                                                  
     l     E      TYP  RCUT    TYP  RCUT                                        
     0   .000     23  2.300                                                     
     0   .000     23  2.300                                                     
     1   .000     23  2.300                                                     
     1   .000     23  2.300                                                     
     2   .000     23  2.300                                                     
     3  -.100     23  2.300                                                     
  local pseudopotential read in
  partial core-charges read in
  atomic valenz-charges read in
  non local Contribution for L=           0  read in
    real space projection operators read in
  non local Contribution for L=           0  read in
    real space projection operators read in
  non local Contribution for L=           1  read in
    real space projection operators read in
  non local Contribution for L=           1  read in
    real space projection operators read in
  non local Contribution for L=           2  read in
    real space projection operators read in
    PAW grid and wavefunctions read in
 
   number of l-projection  operators is LMAX  =           5
   number of lm-projection operators is LMMAX =          13
 

 ----------------------------------------------------------------------------- 
|                                                                             |
|  ADVICE TO THIS USER RUNNING 'VASP/VAMP'   (HEAR YOUR MASTER'S VOICE ...):  |
|                                                                             |
|      You have a (more or less) 'large supercell' and for larger cells       |
|      it might be more efficient to use real space projection operators      |
|      So try LREAL= Auto  in the INCAR   file.                               |
|      Mind: If you want to do a very accurate calculations keep the          |
|      reciprocal projection scheme          (i.e. LREAL=.FALSE.)             |
|                                                                             |
 ----------------------------------------------------------------------------- 

 PAW_PBE Sb 06Sep2000                   :
 energy of atom  1       EATOM= -149.8037
 kinetic energy error for atom=    0.0018 (will be added to EATOM!!)
 PAW_PBE Te 08Apr2002                   :
 energy of atom  2       EATOM= -223.2721
 kinetic energy error for atom=    0.0026 (will be added to EATOM!!)
 
 
 POSCAR: Sb12 Te18                               
  positions in direct lattice
  No initial velocities read in
 exchange correlation table for  LEXCH =        8
   RHO(1)=    0.500       N(1)  =     2000
   RHO(2)=  100.500       N(2)  =     4000
 


--------------------------------------------------------------------------------------------------------


 ion  position               nearest neighbor table
   1  0.333  0.667  0.224-  14 3.03  14 3.03  14 3.03  15 3.19  15 3.19  15 3.19
   2  0.333  0.667  0.026-  13 3.03  13 3.03  13 3.03  18 3.19  18 3.19  18 3.19
   3  0.000  0.000  0.058-  17 3.03  17 3.03  17 3.03  18 3.19  18 3.19  18 3.19
   4  0.000  0.000  0.109-  16 3.03  16 3.03  16 3.03  21 3.19  21 3.19  21 3.19
   5  0.667  0.333  0.141-  20 3.03  20 3.03  20 3.03  21 3.19  21 3.19  21 3.19
   6  0.667  0.333  0.192-  19 3.03  19 3.03  19 3.03  15 3.19  15 3.19  15 3.19
   7  0.333  0.667  0.474-  23 3.03  23 3.03  23 3.03  24 3.19  24 3.19  24 3.19
   8  0.333  0.667  0.276-  22 3.03  22 3.03  22 3.03  27 3.19  27 3.19  27 3.19
   9  0.000  0.000  0.308-  26 3.03  26 3.03  26 3.03  27 3.19  27 3.19  27 3.19
  10  0.000  0.000  0.359-  25 3.03  25 3.03  25 3.03  30 3.19  30 3.19  30 3.19
  11  0.667  0.333  0.391-  29 3.03  29 3.03  29 3.03  30 3.19  30 3.19  30 3.19
  12  0.667  0.333  0.442-  28 3.03  28 3.03  28 3.03  24 3.19  24 3.19  24 3.19
  13  0.000  0.000  0.012-   2 3.03   2 3.03   2 3.03
  14  0.667  0.333  0.238-   1 3.03   1 3.03   1 3.03
  15  0.000  0.000  0.208-   1 3.19   6 3.19   1 3.19   1 3.19   6 3.19   6 3.19
  16  0.667  0.333  0.096-   4 3.03   4 3.03   4 3.03
  17  0.333  0.667  0.071-   3 3.03   3 3.03   3 3.03
  18  0.667  0.333  0.042-   2 3.19   2 3.19   2 3.19   3 3.19   3 3.19   3 3.19
  19  0.333  0.667  0.179-   6 3.03   6 3.03   6 3.03
  20  0.000  0.000  0.154-   5 3.03   5 3.03   5 3.03
  21  0.333  0.667  0.125-   5 3.19   5 3.19   5 3.19   4 3.19   4 3.19   4 3.19
  22  0.000  0.000  0.262-   8 3.03   8 3.03   8 3.03
  23  0.667  0.333  0.488-   7 3.03   7 3.03   7 3.03
  24  0.000  0.000  0.458-   7 3.19  12 3.19   7 3.19   7 3.19  12 3.19  12 3.19
  25  0.667  0.333  0.346-  10 3.03  10 3.03  10 3.03
  26  0.333  0.667  0.321-   9 3.03   9 3.03   9 3.03
  27  0.667  0.333  0.292-   8 3.19   8 3.19   8 3.19   9 3.19   9 3.19   9 3.19
  28  0.333  0.667  0.429-  12 3.03  12 3.03  12 3.03
  29  0.000  0.000  0.404-  11 3.03  11 3.03  11 3.03
  30  0.333  0.667  0.375-  11 3.19  11 3.19  11 3.19  10 3.19  10 3.19  10 3.19
 
  LATTYP: Found a hexagonal cell.
 ALAT       =     4.3306460351
 C/A-ratio  =    28.9446895727
  
  Lattice vectors:
  
 A1 = (   4.3306459950,   0.0000000000,   0.0000000000)
 A2 = (  -2.1653229573,   3.7504494696,   0.0000000000)
 A3 = (   0.0000000000,   0.0000000000, 125.3492051359)


Analysis of symmetry for initial positions (statically):
=====================================================================
 Subroutine PRICEL returns:
 Original cell was already a primitive cell.
 

 Routine SETGRP: Setting up the symmetry group for a 
 hexagonal supercell.


 Subroutine GETGRP returns: Found 12 space group operations
 (whereof  6 operations were pure point group operations)
 out of a pool of 24 trial point group operations.


The static configuration has the point symmetry C_3v.
 The point group associated with its full space group is D_3d.


Analysis of symmetry for dynamics (positions and initial velocities):
=====================================================================
 Subroutine PRICEL returns:
 Original cell was already a primitive cell.
 

 Routine SETGRP: Setting up the symmetry group for a 
 hexagonal supercell.


 Subroutine GETGRP returns: Found 12 space group operations
 (whereof  6 operations were pure point group operations)
 out of a pool of 24 trial point group operations.


The dynamic configuration has the point symmetry C_3v.
 The point group associated with its full space group is D_3d.


Analysis of constrained symmetry for selective dynamics:
=====================================================================
 Subroutine PRICEL returns:
 Original cell was already a primitive cell.
 

 Routine SETGRP: Setting up the symmetry group for a 
 hexagonal supercell.


 Subroutine GETGRP returns: Found 12 space group operations
 (whereof  6 operations were pure point group operations)
 out of a pool of 24 trial point group operations.


The constrained configuration has the point symmetry C_3v.
 The point group associated with its full space group is D_3d.


 Subroutine INISYM returns: Found 12 space group operations
 (whereof  6 operations are pure point group operations),
 and found     1 'primitive' translations

 
 
 KPOINTS: k-point density of [50, 50, 50]/[a, b, c

Automatic generation of k-mesh.
Space group operators:
 irot       det(A)        alpha          n_x          n_y          n_z        tau_x        tau_y        tau_z
    1     1.000000     0.000001     1.000000     0.000000     0.000000     0.000000     0.000000     0.000000
    2     1.000000   120.000000     0.000000    -0.000000    -1.000000     0.000000     0.000000     0.000000
    3     1.000000   120.000000     0.000000    -0.000000     1.000000     0.000000     0.000000     0.000000
    4    -1.000000   179.999999     1.000000    -0.000000     0.000000     0.000000     0.000000     0.000000
    5    -1.000000   180.000000     0.500000    -0.866025     0.000000     0.000000     0.000000     0.000000
    6    -1.000000   179.999999    -0.500000    -0.866025     0.000000     0.000000     0.000000     0.000000
    7    -1.000000     0.000001     1.000000     0.000000     0.000000     0.666666     0.333334     0.500000
    8    -1.000000   120.000000     0.000000    -0.000000    -1.000000     0.666666     0.333333     0.500000
    9    -1.000000   120.000000     0.000000    -0.000000     1.000000     0.666667     0.333334     0.500000
   10     1.000000   179.999999     1.000000    -0.000000     0.000000     0.666667     0.333334     0.500000
   11     1.000000   180.000000     0.500000    -0.866025     0.000000     0.666666     0.333333     0.500000
   12     1.000000   179.999999    -0.500000    -0.866025     0.000000     0.666666     0.333334     0.500000
 
 Subroutine IBZKPT returns following result:
 ===========================================
 
 Found     19 irreducible k-points:
 
 Following reciprocal coordinates:
            Coordinates               Weight
  0.000000  0.000000  0.000000      1.000000
  0.083333 -0.000000  0.000000      6.000000
  0.166667 -0.000000  0.000000      6.000000
  0.250000 -0.000000  0.000000      6.000000
  0.333333 -0.000000  0.000000      6.000000
  0.416667 -0.000000  0.000000      6.000000
  0.500000 -0.000000  0.000000      3.000000
  0.083333  0.083333  0.000000      6.000000
  0.166667  0.083333  0.000000     12.000000
  0.250000  0.083333  0.000000     12.000000
  0.333333  0.083333  0.000000     12.000000
  0.416667  0.083333  0.000000     12.000000
  0.166667  0.166667  0.000000      6.000000
  0.250000  0.166667  0.000000     12.000000
  0.333333  0.166667  0.000000     12.000000
  0.416667  0.166667  0.000000      6.000000
  0.250000  0.250000  0.000000      6.000000
  0.333333  0.250000  0.000000     12.000000
  0.333333  0.333333  0.000000      2.000000
 
 Following cartesian coordinates:
            Coordinates               Weight
  0.000000  0.000000  0.000000      1.000000
  0.019243  0.011110  0.000000      6.000000
  0.038485  0.022220  0.000000      6.000000
  0.057728  0.033329  0.000000      6.000000
  0.076971  0.044439  0.000000      6.000000
  0.096214  0.055549  0.000000      6.000000
  0.115456  0.066659  0.000000      3.000000
  0.019243  0.033329  0.000000      6.000000
  0.038485  0.044439  0.000000     12.000000
  0.057728  0.055549  0.000000     12.000000
  0.076971  0.066659  0.000000     12.000000
  0.096214  0.077768  0.000000     12.000000
  0.038485  0.066659  0.000000      6.000000
  0.057728  0.077768  0.000000     12.000000
  0.076971  0.088878  0.000000     12.000000
  0.096214  0.099988  0.000000      6.000000
  0.057728  0.099988  0.000000      6.000000
  0.076971  0.111098  0.000000     12.000000
  0.076971  0.133317  0.000000      2.000000
 


--------------------------------------------------------------------------------------------------------




 Dimension of arrays:
   k-points           NKPTS =     19   k-points in BZ     NKDIM =     19   number of bands    NBANDS=    128
   number of dos      NEDOS =    301   number of ions     NIONS =     30
   non local maximal  LDIM  =      5   non local SUM 2l+1 LMDIM =     13
   total plane-waves  NPLWV = 414720
   max r-space proj   IRMAX =      1   max aug-charges    IRDMAX=  12046
   dimension x,y,z NGX =    24 NGY =   24 NGZ =  720
   dimension x,y,z NGXF=    48 NGYF=   48 NGZF= 1440
   support grid    NGXF=    48 NGYF=   48 NGZF= 1440
   ions per type =              12  18
   NGX,Y,Z   is equivalent  to a cutoff of   9.21,  9.21,  9.55 a.u.
   NGXF,Y,Z  is equivalent  to a cutoff of  18.43, 18.43, 19.10 a.u.

 SYSTEM =  Tetradymite Slab                        
 POSCAR =  Sb12 Te18                               

 Startparameter for this run:
   NWRITE =      2    write-flag & timer
   PREC   = accura    normal or accurate (medium, high low for compatibility)
   ISTART =      0    job   : 0-new  1-cont  2-samecut
   ICHARG =      2    charge: 1-file 2-atom 10-const
   ISPIN  =      1    spin polarized calculation?
   LNONCOLLINEAR =      F non collinear calculations
   LSORBIT =      F    spin-orbit coupling
   INIWAV =      1    electr: 0-lowe 1-rand  2-diag
   LASPH  =      F    aspherical Exc in radial PAW
   METAGGA=      F    non-selfconsistent MetaGGA calc.

 Electronic Relaxation 1
   ENCUT  =  300.0 eV  22.05 Ry    4.70 a.u.   6.12  6.12177.03*2*pi/ulx,y,z
   ENINI  =  300.0     initial cutoff
   ENAUG  =  380.5 eV  augmentation charge cutoff
   NELM   =     80;   NELMIN=  2; NELMDL= -5     # of ELM steps 
   EDIFF  = 0.1E-05   stopping-criterion for ELM
   LREAL  =      F    real-space projection
   NLSPLINE    = F    spline interpolate recip. space projectors
   LCOMPAT=      F    compatible to vasp.4.4
   GGA_COMPAT  = T    GGA compatible to vasp.4.4-vasp.4.6
   LMAXPAW     = -100 max onsite density
   LMAXMIX     =    2 max onsite mixed and CHGCAR
   VOSKOWN=      0    Vosko Wilk Nusair interpolation
   ROPT   =    0.00000   0.00000
 Ionic relaxation
   EDIFFG = -.1E-01   stopping-criterion for IOM
   NSW    =     20    number of steps for IOM
   NBLOCK =      1;   KBLOCK =     20    inner block; outer block 
   IBRION =      2    ionic relax: 0-MD 1-quasi-New 2-CG
   NFREE  =      1    steps in history (QN), initial steepest desc. (CG)
   ISIF   =      2    stress and relaxation
   IWAVPR =     11    prediction:  0-non 1-charg 2-wave 3-comb
   ISYM   =      2    0-nonsym 1-usesym 2-fastsym
   LCORR  =      T    Harris-Foulkes like correction to forces

   POTIM  = 0.5000    time-step for ionic-motion
   TEIN   =    0.0    initial temperature
   TEBEG  =    0.0;   TEEND  =   0.0 temperature during run
   SMASS  =  -3.00    Nose mass-parameter (am)
   estimated Nose-frequenzy (Omega)   =  0.10E-29 period in steps =****** mass=  -0.429E-27a.u.
   SCALEE = 1.0000    scale energy and forces
   NPACO  =    256;   APACO  = 16.0  distance and # of slots for P.C.
   PSTRESS=    0.0 pullay stress

  Mass of Ions in am
   POMASS = 121.75127.60
  Ionic Valenz
   ZVAL   =   5.00  6.00
  Atomic Wigner-Seitz radii
   RWIGS  =  -1.00 -1.00
  virtual crystal weights 
   VCA    =   1.00  1.00
   NELECT =     168.0000    total number of electrons
   NUPDOWN=      -1.0000    fix difference up-down

 DOS related values:
   EMIN   =  10.00;   EMAX   =-10.00  energy-range for DOS
   EFERMI =   0.00
   ISMEAR =     1;   SIGMA  =   0.20  broadening in eV -4-tet -1-fermi 0-gaus

 Electronic relaxation 2 (details)
   IALGO  =     68    algorithm
   LDIAG  =      T    sub-space diagonalisation (order eigenvalues)
   LSUBROT=      F    optimize rotation matrix (better conditioning)
   TURBO    =      0    0=normal 1=particle mesh
   IRESTART =      0    0=no restart 2=restart with 2 vectors
   NREBOOT  =      0    no. of reboots
   NMIN     =      0    reboot dimension
   EREF     =   0.00    reference energy to select bands
   IMIX   =      4    mixing-type and parameters
     AMIX     =   0.40;   BMIX     =  1.00
     AMIX_MAG =   1.60;   BMIX_MAG =  1.00
     AMIN     =   0.10
     WC   =   100.;   INIMIX=   1;  MIXPRE=   1;  MAXMIX= -45

 Intra band minimization:
   WEIMIN = 0.0010     energy-eigenvalue tresh-hold
   EBREAK =  0.20E-08  absolut break condition
   DEPER  =   0.30     relativ break condition  

   TIME   =   0.40     timestep for ELM

  volume/ion in A,a.u.               =      67.86       457.97
  Fermi-wavevector in a.u.,A,eV,Ry     =   0.712731  1.346866  6.911554  0.507985
  Thomas-Fermi vector in A             =   1.800183
 
 Write flags
   LWAVE        =      T    write WAVECAR
   LDOWNSAMPLE  =      F    k-point downsampling of WAVECAR
   LCHARG       =      T    write CHGCAR
   LVTOT        =      F    write LOCPOT, total local potential
   LVHAR        =      F    write LOCPOT, Hartree potential only
   LELF         =      F    write electronic localiz. function (ELF)
   LORBIT       =     11    0 simple, 1 ext, 2 COOP (PROOUT), +10 PAW based schemes


 Dipole corrections
   LMONO  =      F    monopole corrections only (constant potential shift)
   LDIPOL =      F    correct potential (dipole corrections)
   IDIPOL =      0    1-x, 2-y, 3-z, 4-all directions 
   EPSILON=  1.0000000 bulk dielectric constant

 Exchange correlation treatment:
   GGA     =    --    GGA type
   LEXCH   =     8    internal setting for exchange type
   VOSKOWN=      0    Vosko Wilk Nusair interpolation
   LHFCALC =     F    Hartree Fock is set to
   LHFONE  =     F    Hartree Fock one center treatment
   AEXX    =    0.0000 exact exchange contribution

 Linear response parameters
   LEPSILON=     F    determine dielectric tensor
   LRPA    =     F    only Hartree local field effects (RPA)
   LNABLA  =     F    use nabla operator in PAW spheres
   LVEL    =     F    velocity operator in full k-point grid
   LINTERFAST=   F  fast interpolation
   KINTER  =     0    interpolate to denser k-point grid
   CSHIFT  =0.1000    complex shift for real part using Kramers Kronig
   OMEGAMAX=  -1.0    maximum frequency
   DEG_THRESHOLD= 0.2000000E-02 threshold for treating states as degnerate
   RTIME   =   -0.100 relaxation time in fs
  (WPLASMAI=    0.000 imaginary part of plasma frequency in eV, 0.658/RTIME)
   DFIELD  = 0.0000000 0.0000000 0.0000000 field for delta impulse in time
 
 Orbital magnetization related:
   ORBITALMAG=     F  switch on orbital magnetization
   LCHIMAG   =     F  perturbation theory with respect to B field
   DQ        =  0.001000  dq finite difference perturbation B field
   LLRAUG    =     F  two centre corrections for induced B field


 ----------------------------------------------------------------------------- 
|                                                                             |
|           W    W    AA    RRRRR   N    N  II  N    N   GGGG   !!!           |
|           W    W   A  A   R    R  NN   N  II  NN   N  G    G  !!!           |
|           W    W  A    A  R    R  N N  N  II  N N  N  G       !!!           |
|           W WW W  AAAAAA  RRRRR   N  N N  II  N  N N  G  GGG   !            |
|           WW  WW  A    A  R   R   N   NN  II  N   NN  G    G                |
|           W    W  A    A  R    R  N    N  II  N    N   GGGG   !!!           |
|                                                                             |
|      One of the lattice vectors is very long (>50 A), but AMIN is rather    |
|      large. This can spoil convergence since charge sloshing might occur    |
|      along the long lattice vector. If problems with convergence are        |
|      observed, try to decrease AMIN to a smaller values (e.g. 0.01).        |
|      Note: this warning only applies if the selfconsistency cycle is used.  |
|                                                                             |
 ----------------------------------------------------------------------------- 



--------------------------------------------------------------------------------------------------------


 conjugate gradient relaxation of ions
   using selective dynamics as specified on POSCAR
 charge density and potential will be updated during run
 non-spin polarized calculation
 RMM-DIIS sequential band-by-band and
  variant of blocked Davidson during initial phase
 perform sub-space diagonalisation
    before iterative eigenvector-optimisation
 modified Broyden-mixing scheme, WC =      100.0
 initial mixing is a Kerker type mixing with AMIX =  0.4000 and BMIX =      1.0000
 Hartree-type preconditioning will be used
 using additional bands           44
 reciprocal scheme for non local part
 use partial core corrections
 calculate Harris-corrections to forces 
   (improved forces if not selfconsistent)
 use gradient corrections 
 use of overlap-Matrix (Vanderbilt PP)
 Methfessel and Paxton  Order N= 1 SIGMA  =   0.20


--------------------------------------------------------------------------------------------------------


  energy-cutoff  :      300.00
  volume of cell :     2035.91
      direct lattice vectors                 reciprocal lattice vectors
     4.330645995  0.000000000  0.000000000     0.230912432  0.133317352  0.000000000
    -2.165322957  3.750449470  0.000000000     0.000000000  0.266634708  0.000000000
     0.000000000  0.000000000125.349205136    -0.000000000 -0.000000000  0.007977713

  length of vectors
     4.330645995  4.330645995125.349205136     0.266634708  0.266634708  0.007977713


 
 k-points in units of 2pi/SCALE and weight: k-point density of [50, 50, 50]/[a, b, c
   0.00000000  0.00000000  0.00000000       0.007
   0.01924270  0.01110978  0.00000000       0.042
   0.03848541  0.02221956  0.00000000       0.042
   0.05772811  0.03332934  0.00000000       0.042
   0.07697081  0.04443912  0.00000000       0.042
   0.09621351  0.05554890  0.00000000       0.042
   0.11545622  0.06665868  0.00000000       0.021
   0.01924270  0.03332934  0.00000000       0.042
   0.03848541  0.04443912  0.00000000       0.083
   0.05772811  0.05554890  0.00000000       0.083
   0.07697081  0.06665868  0.00000000       0.083
   0.09621351  0.07776846  0.00000000       0.083
   0.03848541  0.06665868  0.00000000       0.042
   0.05772811  0.07776846  0.00000000       0.083
   0.07697081  0.08887824  0.00000000       0.083
   0.09621351  0.09998801  0.00000000       0.042
   0.05772811  0.09998801  0.00000000       0.042
   0.07697081  0.11109779  0.00000000       0.083
   0.07697081  0.13331735  0.00000000       0.014
 
 k-points in reciprocal lattice and weights: k-point density of [50, 50, 50]/[a, b, c
   0.00000000  0.00000000  0.00000000       0.007
   0.08333333 -0.00000000  0.00000000       0.042
   0.16666667 -0.00000000  0.00000000       0.042
   0.25000000 -0.00000000  0.00000000       0.042
   0.33333333 -0.00000000  0.00000000       0.042
   0.41666667 -0.00000000  0.00000000       0.042
   0.50000000 -0.00000000  0.00000000       0.021
   0.08333333  0.08333333  0.00000000       0.042
   0.16666667  0.08333333  0.00000000       0.083
   0.25000000  0.08333333  0.00000000       0.083
   0.33333333  0.08333333  0.00000000       0.083
   0.41666667  0.08333333  0.00000000       0.083
   0.16666667  0.16666667  0.00000000       0.042
   0.25000000  0.16666667  0.00000000       0.083
   0.33333333  0.16666667  0.00000000       0.083
   0.41666667  0.16666667  0.00000000       0.042
   0.25000000  0.25000000  0.00000000       0.042
   0.33333333  0.25000000  0.00000000       0.083
   0.33333333  0.33333333  0.00000000       0.014
 
 position of ions in fractional coordinates (direct lattice) 
   0.33333300  0.66666700  0.22418168
   0.33333300  0.66666700  0.02581857
   0.00000000  0.00000000  0.05751493
   0.00000000  0.00000000  0.10915182
   0.66666700  0.33333300  0.14084818
   0.66666700  0.33333300  0.19248507
   0.33333300  0.66666700  0.47418168
   0.33333300  0.66666700  0.27581857
   0.00000000  0.00000000  0.30751493
   0.00000000  0.00000000  0.35915182
   0.66666700  0.33333300  0.39084818
   0.66666700  0.33333300  0.44248507
   0.00000000  0.00000000  0.01217755
   0.66666700  0.33333300  0.23782245
   0.00000000  0.00000000  0.20833338
   0.66666700  0.33333300  0.09551080
   0.33333300  0.66666700  0.07115595
   0.66666700  0.33333300  0.04166662
   0.33333300  0.66666700  0.17884430
   0.00000000  0.00000000  0.15448920
   0.33333300  0.66666700  0.12500012
   0.00000000  0.00000000  0.26217755
   0.66666700  0.33333300  0.48782245
   0.00000000  0.00000000  0.45833338
   0.66666700  0.33333300  0.34551080
   0.33333300  0.66666700  0.32115595
   0.66666700  0.33333300  0.29166662
   0.33333300  0.66666700  0.42884430
   0.00000000  0.00000000  0.40448920
   0.33333300  0.66666700  0.37500012
 
 position of ions in cartesian coordinates  (Angst):
  -0.00000214  2.50030090 28.10099547
  -0.00000214  2.50030090  3.23633715
   0.00000000  0.00000000  7.20945083
   0.00000000  0.00000000 13.68209380
   2.16532518  1.25014857 17.65520748
   2.16532518  1.25014857 24.12785045
  -0.00000214  2.50030090 59.43829675
  -0.00000214  2.50030090 34.57363844
   0.00000000  0.00000000 38.54675212
   0.00000000  0.00000000 45.01939509
   2.16532518  1.25014857 48.99250877
   2.16532518  1.25014857 55.46515173
   0.00000000  0.00000000  1.52644663
   2.16532518  1.25014857 29.81085465
   0.00000000  0.00000000 26.11442296
   2.16532518  1.25014857 11.97220328
  -0.00000214  2.50030090  8.91934136
   2.16532518  1.25014857  5.22287832
  -0.00000214  2.50030090 22.41799127
   0.00000000  0.00000000 19.36509800
  -0.00000214  2.50030090 15.66866631
   0.00000000  0.00000000 32.86374791
   2.16532518  1.25014857 61.14815594
   0.00000000  0.00000000 57.45172424
   2.16532518  1.25014857 43.30950456
  -0.00000214  2.50030090 40.25664264
   2.16532518  1.25014857 36.56017961
  -0.00000214  2.50030090 53.75529255
   0.00000000  0.00000000 50.70239929
  -0.00000214  2.50030090 47.00596759
 


--------------------------------------------------------------------------------------------------------


 k-point  1 :   0.0000 0.0000 0.0000  plane waves:   23779
 k-point  2 :   0.0833-0.0000 0.0000  plane waves:   23883
 k-point  3 :   0.1667-0.0000 0.0000  plane waves:   23897
 k-point  4 :   0.2500-0.0000 0.0000  plane waves:   23939
 k-point  5 :   0.3333-0.0000 0.0000  plane waves:   24018
 k-point  6 :   0.4167-0.0000 0.0000  plane waves:   24058
 k-point  7 :   0.5000-0.0000 0.0000  plane waves:   24108
 k-point  8 :   0.0833 0.0833 0.0000  plane waves:   23918
 k-point  9 :   0.1667 0.0833 0.0000  plane waves:   23937
 k-point 10 :   0.2500 0.0833 0.0000  plane waves:   23955
 k-point 11 :   0.3333 0.0833 0.0000  plane waves:   24020
 k-point 12 :   0.4167 0.0833 0.0000  plane waves:   24050
 k-point 13 :   0.1667 0.1667 0.0000  plane waves:   23924
 k-point 14 :   0.2500 0.1667 0.0000  plane waves:   24018
 k-point 15 :   0.3333 0.1667 0.0000  plane waves:   24094
 k-point 16 :   0.4167 0.1667 0.0000  plane waves:   24128
 k-point 17 :   0.2500 0.2500 0.0000  plane waves:   24152
 k-point 18 :   0.3333 0.2500 0.0000  plane waves:   24194
 k-point 19 :   0.3333 0.3333 0.0000  plane waves:   24198

 maximum and minimum number of plane-waves per node :      6065     5920

 maximum number of plane-waves:     24198
 maximum index in each direction: 
   IXMAX=    6   IYMAX=    6   IZMAX=  177
   IXMIN=   -6   IYMIN=   -6   IZMIN= -177


 parallel 3D FFT for wavefunctions:
    minimum data exchange during FFTs selected (reduces bandwidth)
 parallel 3D FFT for charge:
    minimum data exchange during FFTs selected (reduces bandwidth)


 total amount of memory used by VASP MPI-rank0    72294. kBytes
=======================================================================

   base      :      30000. kBytes
   nonl-proj :      27230. kBytes
   fftplans  :       5070. kBytes
   grid      :       8024. kBytes
   one-center:         64. kBytes
   wavefun   :       1906. kBytes
 
     INWAV:  cpu time    0.0000: real time    0.0002
 Broyden mixing: mesh for mixing (old mesh)
   NGX = 13   NGY = 13   NGZ =355
  (NGX  = 48   NGY  = 48   NGZ  =***)
  gives a total of  59995 points

 initial charge density was supplied:
 charge density of overlapping atoms calculated
 number of electron     168.0000000 magnetization 
 keeping initial charge density in first step


--------------------------------------------------------------------------------------------------------


 Maximum index for augmentation-charges          574 (set IRDMAX)


--------------------------------------------------------------------------------------------------------


 First call to EWALD:  gamma=   0.140
 Maximum number of real-space cells 8x 8x 1
 Maximum number of reciprocal cells 1x 1x23

    FEWALD:  cpu time    0.0036: real time    0.0036


--------------------------------------- Iteration      1(   1)  ---------------------------------------


    POTLOK:  cpu time    0.1238: real time    0.1392
    SETDIJ:  cpu time    0.0071: real time    0.0076
     EDDAV:  cpu time    5.0794: real time    5.0829
       DOS:  cpu time    0.0107: real time    0.0114
    --------------------------------------------
      LOOP:  cpu time    5.2210: real time    5.2411

 eigenvalue-minimisations  :  4864
 total energy-change (2. order) : 0.6601374E+03  (-0.4435212E+04)
 number of electron     168.0000000 magnetization 
 augmentation part      168.0000000 magnetization 

 Free energy of the ion-electron system (eV)
  ---------------------------------------------------
  alpha Z        PSCENC =        -5.40434045
  Ewald energy   TEWEN  =    407025.43197019
  -Hartree energ DENC   =   -412406.57453133
  -exchange      EXHF   =         0.00000000
  -V(xc)+E(xc)   XCENC  =     -1059.35288506
  PAW double counting   =      2891.42314479    -1550.38285165
  entropy T*S    EENTRO =         0.00339164
  eigenvalues    EBANDS =       -51.47988449
  atomic energy  EATOM  =      5816.47334678
  Solvation  Ediel_sol  =         0.00000000
  ---------------------------------------------------
  free energy    TOTEN  =       660.13736042 eV

  energy without entropy =      660.13396878  energy(sigma->0) =      660.13622987


--------------------------------------------------------------------------------------------------------




--------------------------------------- Iteration      1(   2)  ---------------------------------------


     EDDAV:  cpu time   14.4256: real time   14.4418
       DOS:  cpu time    0.0009: real time    0.0009
    --------------------------------------------
      LOOP:  cpu time   14.4265: real time   14.4427

 eigenvalue-minimisations  :  8320
 total energy-change (2. order) :-0.7440241E+03  (-0.7396375E+03)
 number of electron     168.0000000 magnetization 
 augmentation part      168.0000000 magnetization 

 Free energy of the ion-electron system (eV)
  ---------------------------------------------------
  alpha Z        PSCENC =        -5.40434045
  Ewald energy   TEWEN  =    407025.43197019
  -Hartree energ DENC   =   -412406.57453133
  -exchange      EXHF   =         0.00000000
  -V(xc)+E(xc)   XCENC  =     -1059.35288506
  PAW double counting   =      2891.42314479    -1550.38285165
  entropy T*S    EENTRO =         0.01613471
  eigenvalues    EBANDS =      -795.51674168
  atomic energy  EATOM  =      5816.47334678
  Solvation  Ediel_sol  =         0.00000000
  ---------------------------------------------------
  free energy    TOTEN  =       -83.88675370 eV

  energy without entropy =      -83.90288841  energy(sigma->0) =      -83.89213194


--------------------------------------------------------------------------------------------------------




--------------------------------------- Iteration      1(   3)  ---------------------------------------


     EDDAV:  cpu time   13.8115: real time   13.8270
       DOS:  cpu time    0.0011: real time    0.0011
    --------------------------------------------
      LOOP:  cpu time   13.8126: real time   13.8281

 eigenvalue-minimisations  :  7808
 total energy-change (2. order) :-0.2666212E+02  (-0.2666080E+02)
 number of electron     168.0000000 magnetization 
 augmentation part      168.0000000 magnetization 

 Free energy of the ion-electron system (eV)
  ---------------------------------------------------
  alpha Z        PSCENC =        -5.40434045
  Ewald energy   TEWEN  =    407025.43197019
  -Hartree energ DENC   =   -412406.57453133
  -exchange      EXHF   =         0.00000000
  -V(xc)+E(xc)   XCENC  =     -1059.35288506
  PAW double counting   =      2891.42314479    -1550.38285165
  entropy T*S    EENTRO =         0.02153046
  eigenvalues    EBANDS =      -822.18425353
  atomic energy  EATOM  =      5816.47334678
  Solvation  Ediel_sol  =         0.00000000
  ---------------------------------------------------
  free energy    TOTEN  =      -110.54886981 eV

  energy without entropy =     -110.57040027  energy(sigma->0) =     -110.55604663


--------------------------------------------------------------------------------------------------------




--------------------------------------- Iteration      1(   4)  ---------------------------------------


     EDDAV:  cpu time   12.9853: real time   13.0003
       DOS:  cpu time    0.0012: real time    0.0012
    --------------------------------------------
      LOOP:  cpu time   12.9865: real time   13.0016

 eigenvalue-minimisations  :  7680
 total energy-change (2. order) :-0.1444121E+00  (-0.1444142E+00)
 number of electron     168.0000000 magnetization 
 augmentation part      168.0000000 magnetization 

 Free energy of the ion-electron system (eV)
  ---------------------------------------------------
  alpha Z        PSCENC =        -5.40434045
  Ewald energy   TEWEN  =    407025.43197019
  -Hartree energ DENC   =   -412406.57453133
  -exchange      EXHF   =         0.00000000
  -V(xc)+E(xc)   XCENC  =     -1059.35288506
  PAW double counting   =      2891.42314479    -1550.38285165
  entropy T*S    EENTRO =         0.02216414
  eigenvalues    EBANDS =      -822.32929928
  atomic energy  EATOM  =      5816.47334678
  Solvation  Ediel_sol  =         0.00000000
  ---------------------------------------------------
  free energy    TOTEN  =      -110.69328188 eV

  energy without entropy =     -110.71544601  energy(sigma->0) =     -110.70066992


--------------------------------------------------------------------------------------------------------




--------------------------------------- Iteration      1(   5)  ---------------------------------------


     EDDAV:  cpu time   15.7973: real time   15.8136
       DOS:  cpu time    0.0015: real time    0.0015
    CHARGE:  cpu time    0.0874: real time    0.0893
    MIXING:  cpu time    0.0258: real time    0.0263
    --------------------------------------------
      LOOP:  cpu time   15.9120: real time   15.9308

 eigenvalue-minimisations  :  8576
 total energy-change (2. order) :-0.1052416E-02  (-0.1052416E-02)
 number of electron     167.9999916 magnetization 
 augmentation part      -31.3888365 magnetization 

 Broyden mixing:
  rms(total) = 0.54198E+00    rms(broyden)= 0.54193E+00
  rms(prec ) = 0.54426E+00
  weight for this iteration     100.00

 Free energy of the ion-electron system (eV)
  ---------------------------------------------------
  alpha Z        PSCENC =        -5.40434045
  Ewald energy   TEWEN  =    407025.43197019
  -Hartree energ DENC   =   -412406.57453133
  -exchange      EXHF   =         0.00000000
  -V(xc)+E(xc)   XCENC  =     -1059.35288506
  PAW double counting   =      2891.42314479    -1550.38285165
  entropy T*S    EENTRO =         0.02216414
  eigenvalues    EBANDS =      -822.33035170
  atomic energy  EATOM  =      5816.47334678
  Solvation  Ediel_sol  =         0.00000000
  ---------------------------------------------------
  free energy    TOTEN  =      -110.69433429 eV

  energy without entropy =     -110.71649843  energy(sigma->0) =     -110.70172234


--------------------------------------------------------------------------------------------------------




--------------------------------------- Iteration      1(   6)  ---------------------------------------


    POTLOK:  cpu time    0.0743: real time    0.0851
    SETDIJ:  cpu time    0.0293: real time    0.0293
    EDDIAG:  cpu time   20.5952: real time   20.6634
  RMM-DIIS:  cpu time    0.7991: real time    0.8001
    ORTHCH:  cpu time    0.1253: real time    0.1253
       DOS:  cpu time    0.0009: real time    0.0009
    CHARGE:  cpu time    0.0856: real time    0.0856
    MIXING:  cpu time    0.0057: real time    0.0058
    --------------------------------------------
      LOOP:  cpu time   21.7153: real time   21.7954

 eigenvalue-minimisations  :  4864
 total energy-change (2. order) : 0.8833284E+00  (-0.1546447E+00)
 number of electron     167.9999917 magnetization 
 augmentation part      -31.2479930 magnetization 

 Broyden mixing:
  rms(total) = 0.26406E+00    rms(broyden)= 0.26405E+00
  rms(prec ) = 0.26495E+00
  weight for this iteration     100.00

 eigenvalues of (default mixing * dielectric matrix)
  average eigenvalue GAMMA=   1.4839
  1.4839

 Free energy of the ion-electron system (eV)
  ---------------------------------------------------
  alpha Z        PSCENC =        -5.40434045
  Ewald energy   TEWEN  =    407025.43197019
  -Hartree energ DENC   =   -412395.41696575
  -exchange      EXHF   =         0.00000000
  -V(xc)+E(xc)   XCENC  =     -1058.25002078
  PAW double counting   =      2942.21965714    -1601.84462489
  entropy T*S    EENTRO =         0.02616293
  eigenvalues    EBANDS =      -833.04619108
  atomic energy  EATOM  =      5816.47334678
  Solvation  Ediel_sol  =         0.00000000
  ---------------------------------------------------
  free energy    TOTEN  =      -109.81100591 eV

  energy without entropy =     -109.83716884  energy(sigma->0) =     -109.81972689


--------------------------------------------------------------------------------------------------------




--------------------------------------- Iteration      1(   7)  ---------------------------------------


    POTLOK:  cpu time    0.0718: real time    0.0823
    SETDIJ:  cpu time    0.0026: real time    0.0026
    EDDIAG:  cpu time    0.7786: real time    0.7787
  RMM-DIIS:  cpu time    0.8064: real time    0.8067
    ORTHCH:  cpu time    0.1191: real time    0.1191
       DOS:  cpu time    0.0009: real time    0.0009
    CHARGE:  cpu time    0.0798: real time    0.0798
    MIXING:  cpu time    0.0013: real time    0.0013
    --------------------------------------------
      LOOP:  cpu time    1.8606: real time    1.8714

 eigenvalue-minimisations  :  4864
 total energy-change (2. order) :-0.8446767E-01  (-0.2207081E-01)
 number of electron     167.9999917 magnetization 
 augmentation part      -31.2265434 magnetization 

 Broyden mixing:
  rms(total) = 0.13906E+00    rms(broyden)= 0.13906E+00
  rms(prec ) = 0.14701E+00
  weight for this iteration     100.00

 eigenvalues of (default mixing * dielectric matrix)
  average eigenvalue GAMMA=   1.4159
  0.9245  1.9073

 Free energy of the ion-electron system (eV)
  ---------------------------------------------------
  alpha Z        PSCENC =        -5.40434045
  Ewald energy   TEWEN  =    407025.43197019
  -Hartree energ DENC   =   -412456.04121244
  -exchange      EXHF   =         0.00000000
  -V(xc)+E(xc)   XCENC  =     -1057.51753990
  PAW double counting   =      2968.70936074    -1628.70888641
  entropy T*S    EENTRO =         0.01996005
  eigenvalues    EBANDS =      -772.85813214
  atomic energy  EATOM  =      5816.47334678
  Solvation  Ediel_sol  =         0.00000000
  ---------------------------------------------------
  free energy    TOTEN  =      -109.89547358 eV

  energy without entropy =     -109.91543362  energy(sigma->0) =     -109.90212693


--------------------------------------------------------------------------------------------------------




--------------------------------------- Iteration      1(   8)  ---------------------------------------


    POTLOK:  cpu time    0.0693: real time    0.0817
    SETDIJ:  cpu time    0.0027: real time    0.0027
    EDDIAG:  cpu time    0.7582: real time    0.7582
  RMM-DIIS:  cpu time    0.7959: real time    0.7963
    ORTHCH:  cpu time    0.1212: real time    0.1212
       DOS:  cpu time    0.0010: real time    0.0010
    CHARGE:  cpu time    0.0804: real time    0.0804
    MIXING:  cpu time    0.0014: real time    0.0014
    --------------------------------------------
      LOOP:  cpu time    1.8301: real time    1.8429

 eigenvalue-minimisations  :  4867
 total energy-change (2. order) :-0.2625709E+01  (-0.3569679E-01)
 number of electron     167.9999917 magnetization 
 augmentation part      -31.1124100 magnetization 

 Broyden mixing:
  rms(total) = 0.48907E+00    rms(broyden)= 0.48907E+00
  rms(prec ) = 0.88974E+00
  weight for this iteration     100.00

 eigenvalues of (default mixing * dielectric matrix)
  average eigenvalue GAMMA=   1.0310
  1.8970  1.0810  0.1151

 Free energy of the ion-electron system (eV)
  ---------------------------------------------------
  alpha Z        PSCENC =        -5.40434045
  Ewald energy   TEWEN  =    407025.43197019
  -Hartree energ DENC   =   -412299.14201313
  -exchange      EXHF   =         0.00000000
  -V(xc)+E(xc)   XCENC  =     -1057.22210295
  PAW double counting   =      2976.32197138    -1636.43739116
  entropy T*S    EENTRO =        -0.02813806
  eigenvalues    EBANDS =      -932.51448523
  atomic energy  EATOM  =      5816.47334678
  Solvation  Ediel_sol  =         0.00000000
  ---------------------------------------------------
  free energy    TOTEN  =      -112.52118264 eV

  energy without entropy =     -112.49304458  energy(sigma->0) =     -112.51180329


--------------------------------------------------------------------------------------------------------




--------------------------------------- Iteration      1(   9)  ---------------------------------------


    POTLOK:  cpu time    0.0718: real time    0.0843
    SETDIJ:  cpu time    0.0025: real time    0.0025
    EDDIAG:  cpu time    0.7696: real time    0.7697
  RMM-DIIS:  cpu time    0.8079: real time    0.8082
    ORTHCH:  cpu time    0.1165: real time    0.1165
       DOS:  cpu time    0.0012: real time    0.0012
    CHARGE:  cpu time    0.0815: real time    0.0815
    MIXING:  cpu time    0.0014: real time    0.0014
    --------------------------------------------
      LOOP:  cpu time    1.8525: real time    1.8654

 eigenvalue-minimisations  :  4864
 total energy-change (2. order) : 0.2099630E+01  (-0.4813311E-01)
 number of electron     167.9999917 magnetization 
 augmentation part      -31.1992959 magnetization 

 Broyden mixing:
  rms(total) = 0.17300E+00    rms(broyden)= 0.17299E+00
  rms(prec ) = 0.30520E+00
  weight for this iteration     100.00

 eigenvalues of (default mixing * dielectric matrix)
  average eigenvalue GAMMA=   0.9833
  1.6787  1.6787  0.5198  0.0560

 Free energy of the ion-electron system (eV)
  ---------------------------------------------------
  alpha Z        PSCENC =        -5.40434045
  Ewald energy   TEWEN  =    407025.43197019
  -Hartree energ DENC   =   -412470.45662897
  -exchange      EXHF   =         0.00000000
  -V(xc)+E(xc)   XCENC  =     -1057.18617790
  PAW double counting   =      2976.80130701    -1636.93043059
  entropy T*S    EENTRO =         0.00632863
  eigenvalues    EBANDS =      -759.15692776
  atomic energy  EATOM  =      5816.47334678
  Solvation  Ediel_sol  =         0.00000000
  ---------------------------------------------------
  free energy    TOTEN  =      -110.42155308 eV

  energy without entropy =     -110.42788171  energy(sigma->0) =     -110.42366262


--------------------------------------------------------------------------------------------------------




--------------------------------------- Iteration      1(  10)  ---------------------------------------


    POTLOK:  cpu time    0.0699: real time    0.0824
    SETDIJ:  cpu time    0.0026: real time    0.0026
    EDDIAG:  cpu time    0.7627: real time    0.7628
  RMM-DIIS:  cpu time    0.8010: real time    0.8014
    ORTHCH:  cpu time    0.1171: real time    0.1171
       DOS:  cpu time    0.0009: real time    0.0009
    CHARGE:  cpu time    0.0806: real time    0.0805
    MIXING:  cpu time    0.0055: real time    0.0055
    --------------------------------------------
      LOOP:  cpu time    1.8402: real time    1.8532

 eigenvalue-minimisations  :  4864
 total energy-change (2. order) : 0.4160690E+00  (-0.1387324E-01)
 number of electron     167.9999917 magnetization 
 augmentation part      -31.2660552 magnetization 

 Broyden mixing:
  rms(total) = 0.10437E+00    rms(broyden)= 0.10437E+00
  rms(prec ) = 0.11813E+00
  weight for this iteration     100.00

 eigenvalues of (default mixing * dielectric matrix)
  average eigenvalue GAMMA=   0.9571
  2.3491  1.3465  0.7124  0.3217  0.0558

 Free energy of the ion-electron system (eV)
  ---------------------------------------------------
  alpha Z        PSCENC =        -5.40434045
  Ewald energy   TEWEN  =    407025.43197019
  -Hartree energ DENC   =   -412477.60739789
  -exchange      EXHF   =         0.00000000
  -V(xc)+E(xc)   XCENC  =     -1057.18606794
  PAW double counting   =      2974.86675937    -1634.99136067
  entropy T*S    EENTRO =         0.02813081
  eigenvalues    EBANDS =      -751.61652425
  atomic energy  EATOM  =      5816.47334678
  Solvation  Ediel_sol  =         0.00000000
  ---------------------------------------------------
  free energy    TOTEN  =      -110.00548406 eV

  energy without entropy =     -110.03361487  energy(sigma->0) =     -110.01486100


--------------------------------------------------------------------------------------------------------




--------------------------------------- Iteration      1(  11)  ---------------------------------------


    POTLOK:  cpu time    0.0693: real time    0.0809
    SETDIJ:  cpu time    0.0026: real time    0.0026
    EDDIAG:  cpu time    0.7692: real time    0.7694
  RMM-DIIS:  cpu time    0.8271: real time    0.8273
    ORTHCH:  cpu time    0.1257: real time    0.1258
       DOS:  cpu time    0.0009: real time    0.0009
    CHARGE:  cpu time    0.0810: real time    0.0810
    MIXING:  cpu time    0.0015: real time    0.0015
    --------------------------------------------
      LOOP:  cpu time    1.8774: real time    1.8894

 eigenvalue-minimisations  :  4872
 total energy-change (2. order) : 0.1278029E+00  (-0.3583459E-02)
 number of electron     167.9999917 magnetization 
 augmentation part      -31.2761556 magnetization 

 Broyden mixing:
  rms(total) = 0.62143E-01    rms(broyden)= 0.62142E-01
  rms(prec ) = 0.67754E-01
  weight for this iteration     100.00

 eigenvalues of (default mixing * dielectric matrix)
  average eigenvalue GAMMA=   0.8878
  2.6193  0.9394  0.7055  0.7055  0.3011  0.0558

 Free energy of the ion-electron system (eV)
  ---------------------------------------------------
  alpha Z        PSCENC =        -5.40434045
  Ewald energy   TEWEN  =    407025.43197019
  -Hartree energ DENC   =   -412447.99461370
  -exchange      EXHF   =         0.00000000
  -V(xc)+E(xc)   XCENC  =     -1057.06410894
  PAW double counting   =      2977.90846154    -1638.08153851
  entropy T*S    EENTRO =         0.01904702
  eigenvalues    EBANDS =      -781.16590509
  atomic energy  EATOM  =      5816.47334678
  Solvation  Ediel_sol  =         0.00000000
  ---------------------------------------------------
  free energy    TOTEN  =      -109.87768118 eV

  energy without entropy =     -109.89672819  energy(sigma->0) =     -109.88403018


--------------------------------------------------------------------------------------------------------




--------------------------------------- Iteration      1(  12)  ---------------------------------------


    POTLOK:  cpu time    0.0691: real time    0.0816
    SETDIJ:  cpu time    0.0027: real time    0.0027
    EDDIAG:  cpu time    0.7604: real time    0.7605
  RMM-DIIS:  cpu time    0.8243: real time    0.8245
    ORTHCH:  cpu time    0.1219: real time    0.1220
       DOS:  cpu time    0.0009: real time    0.0009
    CHARGE:  cpu time    0.0803: real time    0.0803
    MIXING:  cpu time    0.0015: real time    0.0015
    --------------------------------------------
      LOOP:  cpu time    1.8610: real time    1.8738

 eigenvalue-minimisations  :  4873
 total energy-change (2. order) : 0.1436948E-01  (-0.1382394E-02)
 number of electron     167.9999917 magnetization 
 augmentation part      -31.2667463 magnetization 

 Broyden mixing:
  rms(total) = 0.34951E-01    rms(broyden)= 0.34951E-01
  rms(prec ) = 0.45500E-01
  weight for this iteration     100.00

 eigenvalues of (default mixing * dielectric matrix)
  average eigenvalue GAMMA=   0.8743
  2.6590  1.0073  0.7621  0.7621  0.5807  0.2927  0.0558

 Free energy of the ion-electron system (eV)
  ---------------------------------------------------
  alpha Z        PSCENC =        -5.40434045
  Ewald energy   TEWEN  =    407025.43197019
  -Hartree energ DENC   =   -412453.12001769
  -exchange      EXHF   =         0.00000000
  -V(xc)+E(xc)   XCENC  =     -1056.96974071
  PAW double counting   =      2981.03790268    -1641.24989199
  entropy T*S    EENTRO =         0.02043356
  eigenvalues    EBANDS =      -776.08297407
  atomic energy  EATOM  =      5816.47334678
  Solvation  Ediel_sol  =         0.00000000
  ---------------------------------------------------
  free energy    TOTEN  =      -109.86331170 eV

  energy without entropy =     -109.88374525  energy(sigma->0) =     -109.87012288


--------------------------------------------------------------------------------------------------------




--------------------------------------- Iteration      1(  13)  ---------------------------------------


    POTLOK:  cpu time    0.0704: real time    0.0827
    SETDIJ:  cpu time    0.0026: real time    0.0026
    EDDIAG:  cpu time    0.7640: real time    0.7641
  RMM-DIIS:  cpu time    0.8153: real time    0.8156
    ORTHCH:  cpu time    0.1173: real time    0.1173
       DOS:  cpu time    0.0009: real time    0.0009
    CHARGE:  cpu time    0.0839: real time    0.0839
    MIXING:  cpu time    0.0015: real time    0.0015
    --------------------------------------------
      LOOP:  cpu time    1.8560: real time    1.8687

 eigenvalue-minimisations  :  4873
 total energy-change (2. order) : 0.8589653E-02  (-0.2665577E-03)
 number of electron     167.9999917 magnetization 
 augmentation part      -31.2631018 magnetization 

 Broyden mixing:
  rms(total) = 0.26856E-01    rms(broyden)= 0.26856E-01
  rms(prec ) = 0.37953E-01
  weight for this iteration     100.00

 eigenvalues of (default mixing * dielectric matrix)
  average eigenvalue GAMMA=   0.9459
  2.7501  1.3257  1.0672  1.0672  0.6503  0.0558  0.2928  0.3576

 Free energy of the ion-electron system (eV)
  ---------------------------------------------------
  alpha Z        PSCENC =        -5.40434045
  Ewald energy   TEWEN  =    407025.43197019
  -Hartree energ DENC   =   -412452.13631687
  -exchange      EXHF   =         0.00000000
  -V(xc)+E(xc)   XCENC  =     -1056.94575402
  PAW double counting   =      2981.53489551    -1641.75349765
  entropy T*S    EENTRO =         0.01950553
  eigenvalues    EBANDS =      -777.07453106
  atomic energy  EATOM  =      5816.47334678
  Solvation  Ediel_sol  =         0.00000000
  ---------------------------------------------------
  free energy    TOTEN  =      -109.85472205 eV

  energy without entropy =     -109.87422758  energy(sigma->0) =     -109.86122389


--------------------------------------------------------------------------------------------------------




--------------------------------------- Iteration      1(  14)  ---------------------------------------


    POTLOK:  cpu time    0.0679: real time    0.0801
    SETDIJ:  cpu time    0.0026: real time    0.0026
    EDDIAG:  cpu time    0.7580: real time    0.7581
  RMM-DIIS:  cpu time    0.8067: real time    0.8069
    ORTHCH:  cpu time    0.1178: real time    0.1178
       DOS:  cpu time    0.0008: real time    0.0008
    CHARGE:  cpu time    0.0830: real time    0.0830
    MIXING:  cpu time    0.0016: real time    0.0016
    --------------------------------------------
      LOOP:  cpu time    1.8384: real time    1.8510

 eigenvalue-minimisations  :  4864
 total energy-change (2. order) : 0.1930438E-01  (-0.6154363E-03)
 number of electron     167.9999917 magnetization 
 augmentation part      -31.2575476 magnetization 

 Broyden mixing:
  rms(total) = 0.13925E-01    rms(broyden)= 0.13925E-01
  rms(prec ) = 0.23647E-01
  weight for this iteration     100.00

 eigenvalues of (default mixing * dielectric matrix)
  average eigenvalue GAMMA=   0.9900
  2.7300  1.3627  1.3627  1.2085  0.7704  0.7704  0.0558  0.2937  0.3558

 Free energy of the ion-electron system (eV)
  ---------------------------------------------------
  alpha Z        PSCENC =        -5.40434045
  Ewald energy   TEWEN  =    407025.43197019
  -Hartree energ DENC   =   -412446.05449510
  -exchange      EXHF   =         0.00000000
  -V(xc)+E(xc)   XCENC  =     -1056.90293626
  PAW double counting   =      2981.94882179    -1642.17417797
  entropy T*S    EENTRO =         0.01791720
  eigenvalues    EBANDS =      -783.17152384
  atomic energy  EATOM  =      5816.47334678
  Solvation  Ediel_sol  =         0.00000000
  ---------------------------------------------------
  free energy    TOTEN  =      -109.83541767 eV

  energy without entropy =     -109.85333487  energy(sigma->0) =     -109.84139007


--------------------------------------------------------------------------------------------------------




--------------------------------------- Iteration      1(  15)  ---------------------------------------


    POTLOK:  cpu time    0.0671: real time    0.0796
    SETDIJ:  cpu time    0.0026: real time    0.0026
    EDDIAG:  cpu time    0.7609: real time    0.7610
  RMM-DIIS:  cpu time    0.7971: real time    0.7974
    ORTHCH:  cpu time    0.1174: real time    0.1175
       DOS:  cpu time    0.0011: real time    0.0011
    CHARGE:  cpu time    0.0806: real time    0.0806
    MIXING:  cpu time    0.0016: real time    0.0016
    --------------------------------------------
      LOOP:  cpu time    1.8285: real time    1.8414

 eigenvalue-minimisations  :  4876
 total energy-change (2. order) : 0.7929698E-02  (-0.9421049E-04)
 number of electron     167.9999917 magnetization 
 augmentation part      -31.2567103 magnetization 

 Broyden mixing:
  rms(total) = 0.11200E-01    rms(broyden)= 0.11200E-01
  rms(prec ) = 0.19028E-01
  weight for this iteration     100.00

 eigenvalues of (default mixing * dielectric matrix)
  average eigenvalue GAMMA=   1.1125
  2.6894  2.0905  2.0905  0.9373  0.9373  1.0013  0.6730  0.0558  0.2936  0.3566

 Free energy of the ion-electron system (eV)
  ---------------------------------------------------
  alpha Z        PSCENC =        -5.40434045
  Ewald energy   TEWEN  =    407025.43197019
  -Hartree energ DENC   =   -412443.10207422
  -exchange      EXHF   =         0.00000000
  -V(xc)+E(xc)   XCENC  =     -1056.89647123
  PAW double counting   =      2981.65234388    -1641.87436878
  entropy T*S    EENTRO =         0.01724164
  eigenvalues    EBANDS =      -786.12513577
  atomic energy  EATOM  =      5816.47334678
  Solvation  Ediel_sol  =         0.00000000
  ---------------------------------------------------
  free energy    TOTEN  =      -109.82748797 eV

  energy without entropy =     -109.84472961  energy(sigma->0) =     -109.83323518


--------------------------------------------------------------------------------------------------------




--------------------------------------- Iteration      1(  16)  ---------------------------------------


    POTLOK:  cpu time    0.0674: real time    0.0802
    SETDIJ:  cpu time    0.0026: real time    0.0026
    EDDIAG:  cpu time    0.8149: real time    0.8150
  RMM-DIIS:  cpu time    0.7982: real time    0.7985
    ORTHCH:  cpu time    0.1163: real time    0.1163
       DOS:  cpu time    0.0009: real time    0.0009
    CHARGE:  cpu time    0.0812: real time    0.0812
    MIXING:  cpu time    0.0016: real time    0.0017
    --------------------------------------------
      LOOP:  cpu time    1.8832: real time    1.8964

 eigenvalue-minimisations  :  4864
 total energy-change (2. order) : 0.9342900E-02  (-0.1856298E-03)
 number of electron     167.9999917 magnetization 
 augmentation part      -31.2556465 magnetization 

 Broyden mixing:
  rms(total) = 0.79514E-02    rms(broyden)= 0.79513E-02
  rms(prec ) = 0.13577E-01
  weight for this iteration     100.00

 eigenvalues of (default mixing * dielectric matrix)
  average eigenvalue GAMMA=   1.1948
  2.6728  2.5804  2.5804  1.1668  1.0241  1.0241  0.6943  0.6943  0.0558  0.2936
  0.3564

 Free energy of the ion-electron system (eV)
  ---------------------------------------------------
  alpha Z        PSCENC =        -5.40434045
  Ewald energy   TEWEN  =    407025.43197019
  -Hartree energ DENC   =   -412438.95858417
  -exchange      EXHF   =         0.00000000
  -V(xc)+E(xc)   XCENC  =     -1056.88480381
  PAW double counting   =      2981.43615909    -1641.65531539
  entropy T*S    EENTRO =         0.01715461
  eigenvalues    EBANDS =      -790.27373192
  atomic energy  EATOM  =      5816.47334678
  Solvation  Ediel_sol  =         0.00000000
  ---------------------------------------------------
  free energy    TOTEN  =      -109.81814507 eV

  energy without entropy =     -109.83529968  energy(sigma->0) =     -109.82386328


--------------------------------------------------------------------------------------------------------




--------------------------------------- Iteration      1(  17)  ---------------------------------------


    POTLOK:  cpu time    0.0716: real time    0.0839
    SETDIJ:  cpu time    0.0027: real time    0.0027
    EDDIAG:  cpu time    0.7525: real time    0.7526
  RMM-DIIS:  cpu time    0.8048: real time    0.8050
    ORTHCH:  cpu time    0.1161: real time    0.1161
       DOS:  cpu time    0.0009: real time    0.0009
    CHARGE:  cpu time    0.0804: real time    0.0804
    MIXING:  cpu time    0.0017: real time    0.0017
    --------------------------------------------
      LOOP:  cpu time    1.8306: real time    1.8433

 eigenvalue-minimisations  :  4867
 total energy-change (2. order) : 0.4051544E-02  (-0.8306064E-04)
 number of electron     167.9999917 magnetization 
 augmentation part      -31.2545116 magnetization 

 Broyden mixing:
  rms(total) = 0.59644E-02    rms(broyden)= 0.59644E-02
  rms(prec ) = 0.10784E-01
  weight for this iteration     100.00

 eigenvalues of (default mixing * dielectric matrix)
  average eigenvalue GAMMA=   1.3752
  3.7117  3.7117  2.6499  1.2468  1.0492  1.0492  0.8562  0.8562  0.6656  0.0558
  0.2936  0.3563

 Free energy of the ion-electron system (eV)
  ---------------------------------------------------
  alpha Z        PSCENC =        -5.40434045
  Ewald energy   TEWEN  =    407025.43197019
  -Hartree energ DENC   =   -412436.58082394
  -exchange      EXHF   =         0.00000000
  -V(xc)+E(xc)   XCENC  =     -1056.87728211
  PAW double counting   =      2981.49959112    -1641.71921788
  entropy T*S    EENTRO =         0.01814933
  eigenvalues    EBANDS =      -792.65548656
  atomic energy  EATOM  =      5816.47334678
  Solvation  Ediel_sol  =         0.00000000
  ---------------------------------------------------
  free energy    TOTEN  =      -109.81409353 eV

  energy without entropy =     -109.83224286  energy(sigma->0) =     -109.82014330


--------------------------------------------------------------------------------------------------------




--------------------------------------- Iteration      1(  18)  ---------------------------------------


    POTLOK:  cpu time    0.0800: real time    0.0804
    SETDIJ:  cpu time    0.0026: real time    0.0026
    EDDIAG:  cpu time    0.7588: real time    0.7589
  RMM-DIIS:  cpu time    0.8121: real time    0.8123
    ORTHCH:  cpu time    0.1167: real time    0.1167
       DOS:  cpu time    0.0009: real time    0.0009
    CHARGE:  cpu time    0.0801: real time    0.0801
    MIXING:  cpu time    0.0018: real time    0.0018
    --------------------------------------------
      LOOP:  cpu time    1.8529: real time    1.8537

 eigenvalue-minimisations  :  4864
 total energy-change (2. order) : 0.5333620E-02  (-0.1979357E-03)
 number of electron     167.9999917 magnetization 
 augmentation part      -31.2534404 magnetization 

 Broyden mixing:
  rms(total) = 0.36834E-02    rms(broyden)= 0.36833E-02
  rms(prec ) = 0.66156E-02
  weight for this iteration     100.00

 eigenvalues of (default mixing * dielectric matrix)
  average eigenvalue GAMMA=   1.4355
  4.3521  4.0616  2.5344  1.4588  1.0295  1.0295  1.0865  1.0865  0.0558  0.6730
  0.6437  0.2936  0.3563

 Free energy of the ion-electron system (eV)
  ---------------------------------------------------
  alpha Z        PSCENC =        -5.40434045
  Ewald energy   TEWEN  =    407025.43197019
  -Hartree energ DENC   =   -412432.03720547
  -exchange      EXHF   =         0.00000000
  -V(xc)+E(xc)   XCENC  =     -1056.86772402
  PAW double counting   =      2981.48477511    -1641.70407410
  entropy T*S    EENTRO =         0.02244429
  eigenvalues    EBANDS =      -797.20795222
  atomic energy  EATOM  =      5816.47334678
  Solvation  Ediel_sol  =         0.00000000
  ---------------------------------------------------
  free energy    TOTEN  =      -109.80875991 eV

  energy without entropy =     -109.83120420  energy(sigma->0) =     -109.81624134


--------------------------------------------------------------------------------------------------------




--------------------------------------- Iteration      1(  19)  ---------------------------------------


    POTLOK:  cpu time    0.0681: real time    0.0800
    SETDIJ:  cpu time    0.0027: real time    0.0027
    EDDIAG:  cpu time    0.7695: real time    0.7696
  RMM-DIIS:  cpu time    0.8104: real time    0.8106
    ORTHCH:  cpu time    0.1199: real time    0.1199
       DOS:  cpu time    0.0009: real time    0.0009
    CHARGE:  cpu time    0.0798: real time    0.0798
    MIXING:  cpu time    0.0017: real time    0.0017
    --------------------------------------------
      LOOP:  cpu time    1.8530: real time    1.8653

 eigenvalue-minimisations  :  4865
 total energy-change (2. order) : 0.2032676E-02  (-0.9323479E-04)
 number of electron     167.9999917 magnetization 
 augmentation part      -31.2532268 magnetization 

 Broyden mixing:
  rms(total) = 0.23750E-02    rms(broyden)= 0.23748E-02
  rms(prec ) = 0.40024E-02
  weight for this iteration     100.00

 eigenvalues of (default mixing * dielectric matrix)
  average eigenvalue GAMMA=   1.4948
  4.5830  4.5830  2.5014  1.5835  1.3561  1.3561  1.0058  1.0058  0.0558  0.8424
  0.7326  0.6712  0.2936  0.3563

 Free energy of the ion-electron system (eV)
  ---------------------------------------------------
  alpha Z        PSCENC =        -5.40434045
  Ewald energy   TEWEN  =    407025.43197019
  -Hartree energ DENC   =   -412428.96610302
  -exchange      EXHF   =         0.00000000
  -V(xc)+E(xc)   XCENC  =     -1056.86502751
  PAW double counting   =      2981.36514564    -1641.58319259
  entropy T*S    EENTRO =         0.02567604
  eigenvalues    EBANDS =      -800.28420231
  atomic energy  EATOM  =      5816.47334678
  Solvation  Ediel_sol  =         0.00000000
  ---------------------------------------------------
  free energy    TOTEN  =      -109.80672723 eV

  energy without entropy =     -109.83240327  energy(sigma->0) =     -109.81528591


--------------------------------------------------------------------------------------------------------




--------------------------------------- Iteration      1(  20)  ---------------------------------------


    POTLOK:  cpu time    0.0670: real time    0.0793
    SETDIJ:  cpu time    0.0026: real time    0.0026
    EDDIAG:  cpu time    0.7716: real time    0.7717
  RMM-DIIS:  cpu time    0.8929: real time    0.8932
    ORTHCH:  cpu time    0.1179: real time    0.1180
       DOS:  cpu time    0.0009: real time    0.0009
    CHARGE:  cpu time    0.0808: real time    0.0808
    MIXING:  cpu time    0.0018: real time    0.0018
    --------------------------------------------
      LOOP:  cpu time    1.9355: real time    1.9482

 eigenvalue-minimisations  :  4902
 total energy-change (2. order) : 0.3453375E-03  (-0.1522608E-04)
 number of electron     167.9999917 magnetization 
 augmentation part      -31.2534764 magnetization 

 Broyden mixing:
  rms(total) = 0.18796E-02    rms(broyden)= 0.18796E-02
  rms(prec ) = 0.32101E-02
  weight for this iteration     100.00

 eigenvalues of (default mixing * dielectric matrix)
  average eigenvalue GAMMA=   1.6100
  7.3392  3.4879  2.5713  1.7599  1.7599  1.0302  1.0302  1.1139  1.1139  0.0558
  0.8787  0.7001  0.6594  0.2936  0.3563

 Free energy of the ion-electron system (eV)
  ---------------------------------------------------
  alpha Z        PSCENC =        -5.40434045
  Ewald energy   TEWEN  =    407025.43197019
  -Hartree energ DENC   =   -412427.98077681
  -exchange      EXHF   =         0.00000000
  -V(xc)+E(xc)   XCENC  =     -1056.86728712
  PAW double counting   =      2981.32045701    -1641.53808401
  entropy T*S    EENTRO =         0.02639684
  eigenvalues    EBANDS =      -801.26806432
  atomic energy  EATOM  =      5816.47334678
  Solvation  Ediel_sol  =         0.00000000
  ---------------------------------------------------
  free energy    TOTEN  =      -109.80638189 eV

  energy without entropy =     -109.83277873  energy(sigma->0) =     -109.81518084


--------------------------------------------------------------------------------------------------------




--------------------------------------- Iteration      1(  21)  ---------------------------------------


    POTLOK:  cpu time    0.0671: real time    0.0798
    SETDIJ:  cpu time    0.0026: real time    0.0026
    EDDIAG:  cpu time    0.7563: real time    0.7564
  RMM-DIIS:  cpu time    0.8001: real time    0.8004
    ORTHCH:  cpu time    0.1225: real time    0.1225
       DOS:  cpu time    0.0010: real time    0.0010
    CHARGE:  cpu time    0.0813: real time    0.0813
    MIXING:  cpu time    0.0019: real time    0.0019
    --------------------------------------------
      LOOP:  cpu time    1.8328: real time    1.8458

 eigenvalue-minimisations  :  4859
 total energy-change (2. order) : 0.5107024E-03  (-0.3674023E-04)
 number of electron     167.9999917 magnetization 
 augmentation part      -31.2534296 magnetization 

 Broyden mixing:
  rms(total) = 0.70777E-03    rms(broyden)= 0.70763E-03
  rms(prec ) = 0.89226E-03
  weight for this iteration     100.00

 eigenvalues of (default mixing * dielectric matrix)
  average eigenvalue GAMMA=   1.5919
  7.3801  3.3981  2.5047  2.1122  2.1122  0.0558  1.2258  1.0305  1.0305  0.9783
  0.9783  0.2936  0.3563  0.6964  0.6964  0.6208

 Free energy of the ion-electron system (eV)
  ---------------------------------------------------
  alpha Z        PSCENC =        -5.40434045
  Ewald energy   TEWEN  =    407025.43197019
  -Hartree energ DENC   =   -412426.09965852
  -exchange      EXHF   =         0.00000000
  -V(xc)+E(xc)   XCENC  =     -1056.86547126
  PAW double counting   =      2981.31334871    -1641.53093310
  entropy T*S    EENTRO =         0.02728717
  eigenvalues    EBANDS =      -803.15142071
  atomic energy  EATOM  =      5816.47334678
  Solvation  Ediel_sol  =         0.00000000
  ---------------------------------------------------
  free energy    TOTEN  =      -109.80587119 eV

  energy without entropy =     -109.83315836  energy(sigma->0) =     -109.81496692


--------------------------------------------------------------------------------------------------------




--------------------------------------- Iteration      1(  22)  ---------------------------------------


    POTLOK:  cpu time    0.0669: real time    0.0795
    SETDIJ:  cpu time    0.0026: real time    0.0026
    EDDIAG:  cpu time    0.8671: real time    0.8673
  RMM-DIIS:  cpu time    0.8143: real time    0.8145
    ORTHCH:  cpu time    0.1170: real time    0.1170
       DOS:  cpu time    0.0009: real time    0.0009
    CHARGE:  cpu time    0.0916: real time    0.0916
    MIXING:  cpu time    0.0019: real time    0.0019
    --------------------------------------------
      LOOP:  cpu time    1.9623: real time    1.9754

 eigenvalue-minimisations  :  4553
 total energy-change (2. order) : 0.1367448E-04  (-0.1983992E-05)
 number of electron     167.9999917 magnetization 
 augmentation part      -31.2533365 magnetization 

 Broyden mixing:
  rms(total) = 0.44371E-03    rms(broyden)= 0.44369E-03
  rms(prec ) = 0.58520E-03
  weight for this iteration     100.00

 eigenvalues of (default mixing * dielectric matrix)
  average eigenvalue GAMMA=   1.6603
  7.8379  3.8006  2.5710  2.4037  2.4037  1.3650  0.0558  1.0391  1.0391  0.2936
  0.3563  1.0233  0.9627  0.8544  0.8544  0.6564  0.7086

 Free energy of the ion-electron system (eV)
  ---------------------------------------------------
  alpha Z        PSCENC =        -5.40434045
  Ewald energy   TEWEN  =    407025.43197019
  -Hartree energ DENC   =   -412425.87454687
  -exchange      EXHF   =         0.00000000
  -V(xc)+E(xc)   XCENC  =     -1056.86532203
  PAW double counting   =      2981.32056017    -1641.53824706
  entropy T*S    EENTRO =         0.02732817
  eigenvalues    EBANDS =      -803.37660642
  atomic energy  EATOM  =      5816.47334678
  Solvation  Ediel_sol  =         0.00000000
  ---------------------------------------------------
  free energy    TOTEN  =      -109.80585752 eV

  energy without entropy =     -109.83318569  energy(sigma->0) =     -109.81496691


--------------------------------------------------------------------------------------------------------




--------------------------------------- Iteration      1(  23)  ---------------------------------------


    POTLOK:  cpu time    0.0681: real time    0.0792
    SETDIJ:  cpu time    0.0026: real time    0.0027
    EDDIAG:  cpu time    0.7592: real time    0.7593
  RMM-DIIS:  cpu time    0.8141: real time    0.8143
    ORTHCH:  cpu time    0.1178: real time    0.1178
       DOS:  cpu time    0.0009: real time    0.0009
    CHARGE:  cpu time    0.0806: real time    0.0806
    MIXING:  cpu time    0.0020: real time    0.0020
    --------------------------------------------
      LOOP:  cpu time    1.8452: real time    1.8567

 eigenvalue-minimisations  :  4658
 total energy-change (2. order) : 0.8819476E-05  (-0.2184408E-05)
 number of electron     167.9999917 magnetization 
 augmentation part      -31.2534727 magnetization 

 Broyden mixing:
  rms(total) = 0.16473E-03    rms(broyden)= 0.16470E-03
  rms(prec ) = 0.17133E-03
  weight for this iteration     100.00

 eigenvalues of (default mixing * dielectric matrix)
  average eigenvalue GAMMA=   1.6244
  8.0959  3.5743  2.6878  2.0906  2.0906  1.8390  1.3520  0.0558  1.0277  1.0277
  0.2936  0.3563  0.9717  0.8086  0.8086  0.7954  0.6600  0.7031

 Free energy of the ion-electron system (eV)
  ---------------------------------------------------
  alpha Z        PSCENC =        -5.40434045
  Ewald energy   TEWEN  =    407025.43197019
  -Hartree energ DENC   =   -412425.38020592
  -exchange      EXHF   =         0.00000000
  -V(xc)+E(xc)   XCENC  =     -1056.86662636
  PAW double counting   =      2981.30192131    -1641.51954817
  entropy T*S    EENTRO =         0.02739575
  eigenvalues    EBANDS =      -803.86976182
  atomic energy  EATOM  =      5816.47334678
  Solvation  Ediel_sol  =         0.00000000
  ---------------------------------------------------
  free energy    TOTEN  =      -109.80584870 eV

  energy without entropy =     -109.83324445  energy(sigma->0) =     -109.81498061


--------------------------------------------------------------------------------------------------------




--------------------------------------- Iteration      1(  24)  ---------------------------------------


    POTLOK:  cpu time    0.0690: real time    0.0806
    SETDIJ:  cpu time    0.0027: real time    0.0027
    EDDIAG:  cpu time    0.7581: real time    0.7583
  RMM-DIIS:  cpu time    0.8548: real time    0.8549
    ORTHCH:  cpu time    0.1228: real time    0.1229
       DOS:  cpu time    0.0008: real time    0.0008
    CHARGE:  cpu time    0.0807: real time    0.0807
    MIXING:  cpu time    0.0020: real time    0.0020
    --------------------------------------------
      LOOP:  cpu time    1.8910: real time    1.9029

 eigenvalue-minimisations  :  3476
 total energy-change (2. order) :-0.1024878E-05  (-0.2015553E-06)
 number of electron     167.9999917 magnetization 
 augmentation part      -31.2534629 magnetization 

 Broyden mixing:
  rms(total) = 0.11511E-03    rms(broyden)= 0.11511E-03
  rms(prec ) = 0.16309E-03
  weight for this iteration     100.00

 eigenvalues of (default mixing * dielectric matrix)
  average eigenvalue GAMMA=   1.6148
  7.8375  3.6387  2.7489  2.3756  2.3756  1.9798  1.3583  0.0558  1.0304  1.0304
  0.2936  0.3563  0.9345  0.9345  0.8441  0.8441  0.6603  0.6913  0.6913

 Free energy of the ion-electron system (eV)
  ---------------------------------------------------
  alpha Z        PSCENC =        -5.40434045
  Ewald energy   TEWEN  =    407025.43197019
  -Hartree energ DENC   =   -412425.30458057
  -exchange      EXHF   =         0.00000000
  -V(xc)+E(xc)   XCENC  =     -1056.86644215
  PAW double counting   =      2981.30398521    -1641.52164960
[...]
     63      -2.4251      2.00000
     64      -2.3732      2.00000
     65      -2.3605      2.00000
     66      -2.3543      2.00000
     67      -1.3743      2.00000
     68      -1.3730      2.00000
     69      -1.3624      2.00000
     70      -1.3292      2.00000
     71      -1.3090      2.00000
     72      -1.3007      2.00000
     73      -0.5991      2.00000
     74      -0.5985      2.00000
     75      -0.5908      2.00000
     76      -0.5234      2.00000
     77      -0.5204      2.00000
     78      -0.3415      2.00000
     79      -0.3004      2.00000
     80      -0.2186      2.00002
     81      -0.2173      2.00002
     82      -0.1897      2.00005
     83      -0.1584      2.00012
     84      -0.1532      2.00014
     85       1.6374     -0.00000
     86       1.6379     -0.00000
     87       1.6436     -0.00000
     88       1.7239     -0.00000
     89       1.7542     -0.00000
     90       1.7608     -0.00000
     91       2.1248     -0.00000
     92       2.1275     -0.00000
     93       2.1630     -0.00000
     94       2.2964     -0.00000
     95       2.2969     -0.00000
     96       2.4248     -0.00000
     97       2.5605     -0.00000
     98       2.6128     -0.00000
     99       2.6138     -0.00000
    100       2.7354     -0.00000
    101       2.7460     -0.00000
    102       2.7482     -0.00000
    103       3.7074     -0.00000
    104       3.7096     -0.00000
    105       3.7242     -0.00000
    106       3.7930     -0.00000
    107       3.7972     -0.00000
    108       3.8060     -0.00000
    109       4.2071     -0.00000
    110       4.2113     -0.00000
    111       4.2466     -0.00000
    112       4.3152     -0.00000
    113       4.3152     -0.00000
    114       4.3919     -0.00000
    115       4.4643     -0.00000
    116       4.4756     -0.00000
    117       4.4770     -0.00000
    118       4.5332     -0.00000
    119       4.5336     -0.00000
    120       4.5346     -0.00000
    121       5.9668      0.00000
    122       5.9732      0.00000
    123       5.9770      0.00000
    124       5.9959      0.00000
    125       6.0034      0.00000
    126       6.2097      0.00000
    127       6.2192      0.00000
    128       6.2665      0.00000


--------------------------------------------------------------------------------------------------------


 soft charge-density along one line, spin component           1
         0         1         2         3         4         5         6         7         8         9
 total charge-density along one line
 
 pseudopotential strength for first ion, spin component:           1
 41.631  -0.037   0.000   0.022  -0.000   0.000   0.000  -0.000
 -0.037   1.459   0.000   0.001  -0.000  -0.000  -0.000   0.000
  0.000   0.000   9.543   0.000  -0.000  -0.000  -0.000   0.000
  0.022   0.001   0.000   9.542  -0.000  -0.000  -0.000   0.000
 -0.000  -0.000  -0.000  -0.000   9.543   0.000   0.000  -0.000
  0.000  -0.000  -0.000  -0.000   0.000   0.007   0.000  -0.000
  0.000  -0.000  -0.000  -0.000   0.000   0.000   0.007  -0.000
 -0.000   0.000   0.000   0.000  -0.000  -0.000  -0.000   0.007
 -0.000  -0.000  -0.000   0.000   0.000  -0.000  -0.000   0.000
  0.000   0.000   0.002   0.000   0.000   0.000   0.000  -0.000
 -0.000  -0.000  -0.000   0.003   0.000  -0.000   0.000   0.000
 -0.000  -0.000   0.000  -0.000   0.002  -0.000  -0.000   0.000
  0.000   0.000   0.000  -0.000  -0.000   0.000   0.000  -0.000
 total augmentation occupancy for first ion, spin component:           1
  2.132  -0.052   0.000  -0.088   0.000   0.000   0.050   0.000   0.000   0.000  -0.006  -0.000  -0.000
 -0.052   0.018   0.000   0.026  -0.000   0.000  -0.009   0.000  -0.000  -0.000   0.001  -0.000   0.000
  0.000   0.000   0.856   0.000   0.000  -0.365  -0.000  -0.000   0.000   0.027  -0.000   0.000  -0.019
 -0.088   0.026   0.000   0.849   0.000  -0.000  -0.366  -0.000   0.000   0.000  -0.000   0.000  -0.000
 -0.000   0.000   0.000   0.000   0.856  -0.000  -0.000  -0.365  -0.019   0.000   0.000   0.027  -0.000
  0.000   0.000  -0.365  -0.000  -0.000   0.229   0.000   0.000  -0.000  -0.013   0.000  -0.000   0.008
  0.050  -0.009  -0.000  -0.366  -0.000   0.000   0.231   0.000   0.000  -0.000  -0.002  -0.000  -0.000
  0.000   0.000  -0.000  -0.000  -0.365   0.000   0.000   0.229   0.008  -0.000  -0.000  -0.013   0.000
  0.000  -0.000   0.000   0.000  -0.019  -0.000   0.000   0.008   0.014   0.000  -0.000  -0.012  -0.000
  0.000  -0.000   0.027   0.000   0.000  -0.013  -0.000  -0.000   0.000   0.024  -0.000   0.000  -0.012
 -0.006   0.001  -0.000  -0.000   0.000   0.000  -0.002  -0.000  -0.000  -0.000   0.006   0.000   0.000
 -0.000  -0.000   0.000   0.000   0.027  -0.000  -0.000  -0.013  -0.012   0.000   0.000   0.024  -0.000
 -0.000   0.000  -0.019  -0.000  -0.000   0.008  -0.000   0.000  -0.000  -0.012   0.000  -0.000   0.014


------------------------ aborting loop because EDIFF is reached ----------------------------------------


 


 total charge     
 
# of ion       s       p       d       tot
------------------------------------------
    1        1.292   0.950   0.048   2.290
    2        1.296   0.943   0.049   2.287
    3        1.294   0.947   0.048   2.289
    4        1.292   0.950   0.048   2.290
    5        1.293   0.949   0.048   2.290
    6        1.292   0.950   0.048   2.290
    7        1.296   0.943   0.049   2.287
    8        1.292   0.950   0.048   2.290
    9        1.292   0.950   0.048   2.290
   10        1.293   0.949   0.048   2.289
   11        1.292   0.950   0.048   2.290
   12        1.294   0.947   0.048   2.289
   13        1.398   1.915   0.021   3.335
   14        1.405   1.897   0.024   3.326
   15        1.390   1.939   0.029   3.358
   16        1.406   1.896   0.024   3.326
   17        1.405   1.899   0.024   3.327
   18        1.389   1.943   0.028   3.360
   19        1.406   1.897   0.024   3.326
   20        1.405   1.898   0.024   3.327
   21        1.390   1.939   0.029   3.358
   22        1.405   1.897   0.024   3.327
   23        1.398   1.915   0.021   3.334
   24        1.389   1.943   0.028   3.360
   25        1.405   1.898   0.024   3.327
   26        1.406   1.896   0.024   3.326
   27        1.390   1.939   0.029   3.358
   28        1.405   1.899   0.024   3.328
   29        1.406   1.896   0.024   3.326
   30        1.390   1.939   0.029   3.358
--------------------------------------------------
tot         40.707  45.823   1.028  87.559
 
    CHARGE:  cpu time    0.0843: real time    0.0845
    FORLOC:  cpu time    0.0016: real time    0.0016
    FORNL :  cpu time    0.2517: real time    0.2520
    STRESS:  cpu time    1.2105: real time    1.2132
    FORCOR:  cpu time    0.0459: real time    0.0461
    FORHAR:  cpu time    0.0097: real time    0.0097
    MIXING:  cpu time    0.0005: real time    0.0005
    OFIELD:  cpu time    0.0000: real time    0.0000

  FORCE on cell =-STRESS in cart. coord.  units (eV):
  Direction    XX          YY          ZZ          XY          YZ          ZX
  --------------------------------------------------------------------------------------
  Alpha Z    -5.40434    -5.40434    -5.40434
  Ewald  411089.18542411089.18543************     0.00001     0.00000    -0.00000
  Hartree412291.50308412291.50307************    -0.00000    -0.00000     0.00000
  E(xc)    -660.16143  -660.16145  -659.57558    -0.00002     0.00000    -0.00000
  Local  ************************824175.89073    -0.00057     0.00000    -0.00000
  n-local  2983.69465  2982.68582  2979.56985   -10.68426    -0.36696    16.37948
  augment  -688.32219  -688.32158  -686.54891     0.00052    -0.00000     0.00000
  Kinetic  1290.16676  1341.21606  1316.05061   -62.39273    -0.39442    -3.21824
  Fock        0.00000     0.00000     0.00000     0.00000     0.00000     0.00000
  -------------------------------------------------------------------------------------
  Total       0.47582     0.47582     0.46956     0.00000     0.00000     0.00000
  in kB       0.37445     0.37445     0.36952     0.00000     0.00000     0.00000
  external pressure =        0.37 kB  Pullay stress =        0.00 kB


 VOLUME and BASIS-vectors are now :
 -----------------------------------------------------------------------------
  energy-cutoff  :      300.00
  volume of cell :     2035.91
      direct lattice vectors                 reciprocal lattice vectors
     4.330645995  0.000000000  0.000000000     0.230912432  0.133317352  0.000000000
    -2.165322957  3.750449470  0.000000000     0.000000000  0.266634708  0.000000000
     0.000000000  0.000000000125.349205136    -0.000000000 -0.000000000  0.007977713

  length of vectors
     4.330645995  4.330645995125.349205136     0.266634708  0.266634708  0.007977713


 FORCES acting on ions
    electron-ion (+dipol)            ewald-force                    non-local-force                 convergence-correction
 -----------------------------------------------------------------------------------------------
   0.355E-03 -.205E-03 0.221E+03   0.102E-03 -.588E-04 -.224E+03   0.134E-16 -.747E-17 0.356E+01   0.267E-08 -.154E-08 0.118E-01
   0.357E-03 -.206E-03 0.212E+04   0.899E-04 -.519E-04 -.212E+04   0.568E-17 0.944E-17 -.390E+01   0.226E-08 -.130E-08 -.632E-02
   -.277E-04 0.161E-04 0.178E+04   -.123E-04 0.712E-05 -.178E+04   0.244E-16 -.374E-17 0.356E+01   -.542E-08 0.313E-08 -.117E-01
   -.269E-04 0.155E-04 0.134E+04   0.127E-04 -.732E-05 -.134E+04   -.486E-17 0.180E-17 -.363E+01   0.520E-08 -.300E-08 -.198E-01
   -.408E-03 0.236E-03 0.100E+04   -.899E-04 0.519E-04 -.100E+04   0.892E-17 -.299E-18 0.353E+01   0.190E-09 -.110E-09 -.145E-01
   -.409E-03 0.236E-03 0.559E+03   -.102E-03 0.588E-04 -.556E+03   -.681E-17 0.163E-17 -.359E+01   -.359E-08 0.207E-08 0.127E-01
   0.360E-03 -.208E-03 -.212E+04   0.103E-03 -.594E-04 0.212E+04   0.101E-16 -.180E-16 0.390E+01   -.593E-08 0.342E-08 0.632E-02
   0.353E-03 -.204E-03 -.221E+03   0.898E-04 -.518E-04 0.224E+03   -.738E-17 0.418E-17 -.356E+01   -.284E-10 0.164E-10 -.118E-01
   -.278E-04 0.160E-04 -.559E+03   -.126E-04 0.725E-05 0.556E+03   -.829E-17 -.928E-18 0.359E+01   -.384E-08 0.222E-08 -.127E-01
   -.250E-04 0.144E-04 -.100E+04   0.123E-04 -.711E-05 0.100E+04   -.107E-16 0.275E-17 -.353E+01   0.193E-08 -.111E-08 0.145E-01
   -.410E-03 0.237E-03 -.134E+04   -.896E-04 0.517E-04 0.134E+04   0.194E-16 0.552E-17 0.363E+01   0.411E-09 -.237E-09 0.198E-01
   -.409E-03 0.236E-03 -.178E+04   -.102E-03 0.587E-04 0.178E+04   -.186E-16 0.660E-17 -.356E+01   -.343E-08 0.198E-08 0.117E-01
   -.324E-04 0.189E-04 0.271E+04   -.360E-04 0.208E-04 -.272E+04   0.151E-16 0.162E-16 0.579E+01   0.106E-08 -.610E-09 -.195E-02
   -.745E-03 0.430E-03 0.904E+02   -.828E-04 0.478E-04 -.849E+02   0.347E-16 -.301E-16 -.552E+01   -.598E-08 0.345E-08 0.760E-02
   -.286E-04 0.165E-04 0.468E+03   -.766E-07 0.442E-07 -.468E+03   -.223E-19 -.279E-19 0.557E-02   -.540E-09 0.312E-09 0.176E-01
   -.742E-03 0.428E-03 0.178E+04   -.544E-04 0.314E-04 -.179E+04   0.551E-16 -.136E-16 0.557E+01   -.760E-08 0.439E-08 -.182E-01
   0.682E-03 -.394E-03 0.196E+04   0.543E-04 -.313E-04 -.196E+04   -.696E-16 0.264E-16 -.552E+01   -.444E-08 0.256E-08 -.124E-01
   -.721E-03 0.416E-03 0.234E+04   -.830E-04 0.479E-04 -.234E+04   -.392E-17 0.151E-17 -.317E-02   -.165E-08 0.951E-09 -.119E-01
   0.689E-03 -.398E-03 0.845E+03   0.829E-04 -.479E-04 -.851E+03   -.958E-18 -.203E-16 0.554E+01   -.296E-08 0.171E-08 0.746E-02
   -.250E-04 0.144E-04 0.103E+04   0.295E-04 -.170E-04 -.102E+04   0.217E-16 -.449E-17 -.550E+01   0.147E-08 -.850E-09 -.899E-02
   0.667E-03 -.385E-03 0.140E+04   0.829E-04 -.479E-04 -.140E+04   0.191E-19 -.193E-19 0.263E-01   -.262E-09 0.151E-09 -.234E-01
   -.336E-04 0.194E-04 -.904E+02   -.295E-04 0.170E-04 0.849E+02   -.152E-16 0.248E-16 0.552E+01   -.264E-08 0.153E-08 -.761E-02
   -.747E-03 0.431E-03 -.271E+04   -.774E-04 0.447E-04 0.272E+04   -.228E-17 0.137E-16 -.579E+01   0.708E-09 -.409E-09 0.195E-02
   -.256E-04 0.148E-04 -.234E+04   0.990E-07 -.572E-07 0.234E+04   0.353E-17 -.149E-17 0.317E-02   -.279E-08 0.161E-08 0.119E-01
   -.740E-03 0.427E-03 -.103E+04   -.543E-04 0.314E-04 0.102E+04   -.120E-16 0.251E-18 0.550E+01   0.536E-08 -.309E-08 0.898E-02
   0.685E-03 -.395E-03 -.845E+03   0.544E-04 -.314E-04 0.851E+03   0.962E-17 0.126E-16 -.554E+01   -.392E-08 0.226E-08 -.746E-02
   -.724E-03 0.418E-03 -.468E+03   -.828E-04 0.478E-04 0.468E+03   -.367E-19 0.954E-20 -.557E-02   -.886E-10 0.511E-10 -.176E-01
   0.687E-03 -.397E-03 -.196E+04   0.827E-04 -.478E-04 0.196E+04   0.616E-16 -.317E-16 0.552E+01   -.198E-08 0.114E-08 0.124E-01
   -.262E-04 0.151E-04 -.178E+04   0.296E-04 -.171E-04 0.179E+04   -.343E-16 0.245E-17 -.557E+01   0.439E-08 -.253E-08 0.182E-01
   0.667E-03 -.385E-03 -.140E+04   0.827E-04 -.477E-04 0.140E+04   -.129E-18 0.819E-19 -.263E-01   -.241E-08 0.139E-08 0.234E-01
 -----------------------------------------------------------------------------------------------
   -.832E-03 0.480E-03 0.115E+00   -.689E-14 0.102E-12 -.455E-12   0.883E-16 -.227E-17 -.269E-14   -.338E-07 0.195E-07 -.539E-04
 
 
 POSITION                                       TOTAL-FORCE (eV/Angst)
 -----------------------------------------------------------------------------------
     -0.00000      2.50030     28.10285         0.000000     -0.000000      0.002186
     -0.00000      2.50030      3.23634         0.000000     -0.000000     -0.026271
      0.00000     -0.00000      7.21070         0.000000     -0.000000      0.002629
      0.00000     -0.00000     13.67876        -0.000000      0.000000      0.002541
      2.16533      1.25015     17.65635        -0.000000      0.000000      0.002624
      2.16533      1.25015     24.12513        -0.000000      0.000000      0.001467
     -0.00000      2.50030     59.43830        -0.000000      0.000000      0.026271
     -0.00000      2.50030     34.57178        -0.000000      0.000000     -0.002186
     -0.00000     -0.00000     38.54948         0.000000     -0.000000     -0.001467
     -0.00000      0.00000     45.01825         0.000000     -0.000000     -0.002624
      2.16533      1.25015     48.99585         0.000000     -0.000000     -0.002541
      2.16533      1.25015     55.46390        -0.000000      0.000000     -0.002629
      0.00000     -0.00000      1.54120         0.000000     -0.000000      0.001200
      2.16533      1.25015     29.81162         0.000000      0.000000      0.005511
      0.00000      0.00000     26.11512        -0.000000      0.000000     -0.001379
      2.16533      1.25015     11.97198        -0.000000      0.000000     -0.007690
     -0.00000      2.50030      8.92083         0.000000     -0.000000      0.007753
      2.16533      1.25015      5.22418        -0.000000      0.000000      0.007411
     -0.00000      2.50030     22.41728         0.000000     -0.000000     -0.007642
     -0.00000      0.00000     19.36594         0.000000      0.000000      0.004851
     -0.00000      2.50030     15.67073         0.000000     -0.000000     -0.000583
     -0.00000     -0.00000     32.86298        -0.000000     -0.000000     -0.005511
      2.16533      1.25015     61.13340         0.000000      0.000000     -0.001200
     -0.00000      0.00000     57.45042         0.000000     -0.000000     -0.007411
      2.16533      1.25015     43.30867        -0.000000     -0.000000     -0.004851
     -0.00000      2.50030     40.25736        -0.000000      0.000000      0.007642
      2.16533      1.25015     36.55948         0.000000     -0.000000      0.001379
     -0.00000      2.50030     53.75380        -0.000000      0.000000     -0.007753
     -0.00000      0.00000     50.70263         0.000000     -0.000000      0.007690
     -0.00000      2.50030     47.00390        -0.000000      0.000000      0.000583
 -----------------------------------------------------------------------------------
    total drift:                               -0.000832      0.000480      0.114878


--------------------------------------------------------------------------------------------------------



  FREE ENERGIE OF THE ION-ELECTRON SYSTEM (eV)
  ---------------------------------------------------
  free  energy   TOTEN  =      -109.80734379 eV

  energy  without entropy=     -109.83468429  energy(sigma->0) =     -109.81645729
 
 d Force = 0.1365666E-03[ 0.801E-04, 0.193E-03]  d Energy = 0.1383167E-03-0.175E-05
 d Force =-0.1263603E+02[-0.126E+02,-0.126E+02]  d Ewald  =-0.1263603E+02-0.378E-07


--------------------------------------------------------------------------------------------------------


    POTLOK:  cpu time    0.0611: real time    0.0612


--------------------------------------------------------------------------------------------------------


 Conjugate gradient step on ions:
 trial-energy change:   -0.000138  1 .order   -0.000137   -0.000193   -0.000080
  (g-gl).g = 0.125E-03      g.g   = 0.130E-03  gl.gl    = 0.789E-03
 g(Force)  = 0.130E-03   g(Stress)= 0.000E+00 ortho     = 0.527E-05
 gamma     =   0.15857
 trial     =   1.47089
 opt step  =   2.51511  (harmonic =   2.51511) maximal distance =0.00268013
 next E    =  -109.807370   (d E  =  -0.00017)


--------------------------------------------------------------------------------------------------------


  
 reached required accuracy - stopping structural energy minimisation
 writing wavefunctions
     LOOP+:  cpu time   27.3676: real time   33.1247
    4ORBIT:  cpu time    0.0000: real time    0.0000
 


 total charge     
 
# of ion       s       p       d       tot
------------------------------------------
    1        1.292   0.950   0.048   2.290
    2        1.296   0.943   0.049   2.287
    3        1.294   0.947   0.048   2.289
    4        1.292   0.950   0.048   2.290
    5        1.293   0.949   0.048   2.290
    6        1.292   0.950   0.048   2.290
    7        1.296   0.943   0.049   2.287
    8        1.292   0.950   0.048   2.290
    9        1.292   0.950   0.048   2.290
   10        1.293   0.949   0.048   2.289
   11        1.292   0.950   0.048   2.290
   12        1.294   0.947   0.048   2.289
   13        1.398   1.915   0.021   3.335
   14        1.405   1.897   0.024   3.326
   15        1.390   1.939   0.029   3.358
   16        1.406   1.896   0.024   3.326
   17        1.405   1.899   0.024   3.327
   18        1.389   1.943   0.028   3.360
   19        1.406   1.897   0.024   3.326
   20        1.405   1.898   0.024   3.327
   21        1.390   1.939   0.029   3.358
   22        1.405   1.897   0.024   3.327
   23        1.398   1.915   0.021   3.334
   24        1.389   1.943   0.028   3.360
   25        1.405   1.898   0.024   3.327
   26        1.406   1.896   0.024   3.326
   27        1.390   1.939   0.029   3.358
   28        1.405   1.899   0.024   3.328
   29        1.406   1.896   0.024   3.326
   30        1.390   1.939   0.029   3.358
--------------------------------------------------
tot         40.707  45.823   1.028  87.559
 

 total amount of memory used by VASP MPI-rank0    72294. kBytes
=======================================================================

   base      :      30000. kBytes
   nonl-proj :      27230. kBytes
   fftplans  :       5070. kBytes
   grid      :       8024. kBytes
   one-center:         64. kBytes
   wavefun   :       1906. kBytes
 
  
  
 General timing and accounting informations for this job:
 ========================================================
  
                  Total CPU time used (sec):      257.543
                            User time (sec):      245.842
                          System time (sec):       11.702
                         Elapsed time (sec):      302.993
  
                   Maximum memory used (kb):      279060.
                   Average memory used (kb):           0.
  
                          Minor page faults:       101059
                          Major page faults:           36
                 Voluntary context switches:        15699
