  30  30   1   0
  0.7305754E+02  0.4450884E-09  0.3193766E-08  0.1780354E-08  0.5000000E-15
  1.000000000000000E-004
  CAR 
 Tetradymite Slab                        
     10.91808728    -25.22742674  301      0.27436055      1.00000000
    -25.227  0.0000E+00  0.0000E+00
    -25.107  0.0000E+00  0.0000E+00
    -24.986  0.0000E+00  0.0000E+00
    -24.866 -0.1245E-28 -0.1500E-29
    -24.745 -0.1657E-24 -0.1997E-25
    -24.625 -0.1067E-20 -0.1286E-21
    -24.505 -0.3334E-17 -0.4019E-18
    -24.384 -0.4913E-14 -0.5923E-15
    -24.264 -0.3606E-11 -0.4351E-12
    -24.143 -0.1284E-08 -0.1551E-09
    -24.023 -0.2217E-06 -0.2686E-07
    -23.902 -0.1848E-04 -0.2254E-05
    -23.782 -0.7367E-03 -0.9101E-04
    -23.661 -0.1366E-01 -0.1737E-02
    -23.541 -0.1093E+00 -0.1491E-01
    -23.420 -0.2655E+00 -0.4690E-01
    -23.300  0.6884E+00  0.3605E-01
    -23.179  0.4054E+01  0.5245E+00
    -23.059  0.6421E+01  0.1298E+01
    -22.938  0.5424E+01  0.1952E+01
    -22.818  0.6079E+01  0.2684E+01
    -22.697  0.9944E+01  0.3882E+01
    -22.577  0.1108E+02  0.5218E+01
    -22.456  0.6132E+01  0.5957E+01
    -22.336  0.9439E+00  0.6070E+01
    -22.215 -0.3968E+00  0.6023E+01
    -22.095 -0.1641E+00  0.6003E+01
    -21.974 -0.2147E-01  0.6000E+01
    -21.854 -0.1229E-02  0.6000E+01
    -21.733 -0.3286E-04  0.6000E+01
    -21.613 -0.4193E-06  0.6000E+01
    -21.492 -0.2571E-08  0.6000E+01
    -21.372 -0.7598E-11  0.6000E+01
    -21.251 -0.1089E-13  0.6000E+01
    -21.131  0.0000E+00  0.6000E+01
    -21.010  0.0000E+00  0.6000E+01
    -20.890  0.0000E+00  0.6000E+01
    -20.769  0.0000E+00  0.6000E+01
    -20.649  0.0000E+00  0.6000E+01
    -20.529  0.0000E+00  0.6000E+01
    -20.408  0.0000E+00  0.6000E+01
    -20.288  0.0000E+00  0.6000E+01
    -20.167  0.0000E+00  0.6000E+01
    -20.047  0.0000E+00  0.6000E+01
    -19.926  0.0000E+00  0.6000E+01
    -19.806  0.0000E+00  0.6000E+01
    -19.685  0.0000E+00  0.6000E+01
    -19.565  0.0000E+00  0.6000E+01
    -19.444  0.0000E+00  0.6000E+01
    -19.324  0.0000E+00  0.6000E+01
    -19.203  0.0000E+00  0.6000E+01
    -19.083  0.0000E+00  0.6000E+01
    -18.962  0.0000E+00  0.6000E+01
    -18.842  0.0000E+00  0.6000E+01
    -18.721  0.0000E+00  0.6000E+01
    -18.601  0.0000E+00  0.6000E+01
    -18.480  0.0000E+00  0.6000E+01
    -18.360  0.0000E+00  0.6000E+01
    -18.239  0.0000E+00  0.6000E+01
    -18.119  0.0000E+00  0.6000E+01
    -17.998  0.0000E+00  0.6000E+01
    -17.878  0.0000E+00  0.6000E+01
    -17.757  0.0000E+00  0.6000E+01
    -17.637  0.0000E+00  0.6000E+01
    -17.516  0.0000E+00  0.6000E+01
    -17.396  0.0000E+00  0.6000E+01
    -17.275  0.0000E+00  0.6000E+01
    -17.155  0.0000E+00  0.6000E+01
    -17.034  0.0000E+00  0.6000E+01
    -16.914  0.0000E+00  0.6000E+01
    -16.793  0.0000E+00  0.6000E+01
    -16.673  0.0000E+00  0.6000E+01
    -16.553  0.0000E+00  0.6000E+01
    -16.432  0.0000E+00  0.6000E+01
    -16.312  0.0000E+00  0.6000E+01
    -16.191  0.0000E+00  0.6000E+01
    -16.071  0.0000E+00  0.6000E+01
    -15.950  0.0000E+00  0.6000E+01
    -15.830  0.0000E+00  0.6000E+01
    -15.709  0.0000E+00  0.6000E+01
    -15.589  0.0000E+00  0.6000E+01
    -15.468  0.0000E+00  0.6000E+01
    -15.348  0.0000E+00  0.6000E+01
    -15.227  0.0000E+00  0.6000E+01
    -15.107  0.0000E+00  0.6000E+01
    -14.986  0.0000E+00  0.6000E+01
    -14.866  0.0000E+00  0.6000E+01
    -14.745  0.0000E+00  0.6000E+01
    -14.625  0.0000E+00  0.6000E+01
    -14.504  0.0000E+00  0.6000E+01
    -14.384  0.0000E+00  0.6000E+01
    -14.263 -0.5443E-30  0.6000E+01
    -14.143 -0.7328E-26  0.6000E+01
    -14.022 -0.4766E-22  0.6000E+01
    -13.902 -0.1498E-18  0.6000E+01
    -13.781 -0.2234E-15  0.6000E+01
    -13.661 -0.1606E-12  0.6000E+01
    -13.540 -0.5623E-10  0.6000E+01
    -13.420 -0.9438E-08  0.6000E+01
    -13.299 -0.7552E-06  0.6000E+01
    -13.179 -0.2850E-04  0.6000E+01
    -13.058 -0.4955E-03  0.6000E+01
    -12.938 -0.3743E-02  0.5999E+01
    -12.817 -0.9468E-02  0.5998E+01
    -12.697  0.1556E-01  0.6000E+01
    -12.576  0.1298E+00  0.6016E+01
    -12.456  0.2956E+00  0.6051E+01
    -12.336  0.3768E+00  0.6097E+01
    -12.215  0.3642E+00  0.6141E+01
    -12.095  0.3599E+00  0.6184E+01
    -11.974  0.4481E+00  0.6238E+01
    -11.854  0.6193E+00  0.6313E+01
    -11.733  0.6548E+00  0.6392E+01
    -11.613  0.6213E+00  0.6466E+01
    -11.492  0.6796E+00  0.6548E+01
    -11.372  0.7389E+00  0.6637E+01
    -11.251  0.7701E+00  0.6730E+01
    -11.131  0.7951E+00  0.6826E+01
    -11.010  0.7857E+00  0.6921E+01
    -10.890  0.7014E+00  0.7005E+01
    -10.769  0.5876E+00  0.7076E+01
    -10.649  0.6394E+00  0.7153E+01
    -10.528  0.9436E+00  0.7267E+01
    -10.408  0.1093E+01  0.7398E+01
    -10.287  0.8754E+00  0.7504E+01
    -10.167  0.5461E+00  0.7570E+01
    -10.046  0.3070E+00  0.7607E+01
     -9.926  0.3830E+00  0.7653E+01
     -9.805  0.6877E+00  0.7736E+01
     -9.685  0.8469E+00  0.7838E+01
     -9.564  0.7934E+00  0.7933E+01
     -9.444  0.8341E+00  0.8034E+01
     -9.323  0.9663E+00  0.8150E+01
     -9.203  0.9880E+00  0.8269E+01
     -9.082  0.8961E+00  0.8377E+01
     -8.962  0.6972E+00  0.8461E+01
     -8.841  0.6202E+00  0.8536E+01
     -8.721  0.7754E+00  0.8629E+01
     -8.600  0.8002E+00  0.8726E+01
     -8.480  0.6006E+00  0.8798E+01
     -8.360  0.4601E+00  0.8854E+01
     -8.239  0.3638E+00  0.8897E+01
     -8.119  0.2364E+00  0.8926E+01
     -7.998  0.1920E+00  0.8949E+01
     -7.878  0.2071E+00  0.8974E+01
     -7.757  0.1631E+00  0.8994E+01
     -7.637  0.6066E-01  0.9001E+01
     -7.516 -0.9764E-04  0.9001E+01
     -7.396 -0.5897E-02  0.9000E+01
     -7.275 -0.1407E-02  0.9000E+01
     -7.155 -0.1297E-03  0.9000E+01
     -7.034 -0.5391E-05  0.9000E+01
     -6.914 -0.1053E-06  0.9000E+01
     -6.793 -0.9803E-09  0.9000E+01
     -6.673 -0.4376E-11  0.9000E+01
     -6.552 -0.9384E-14  0.9000E+01
     -6.432 -0.1536E-16  0.9000E+01
     -6.311  0.0000E+00  0.9000E+01
     -6.191  0.0000E+00  0.9000E+01
     -6.070  0.0000E+00  0.9000E+01
     -5.950  0.0000E+00  0.9000E+01
     -5.829 -0.1765E-30  0.9000E+01
     -5.709 -0.2673E-26  0.9000E+01
     -5.588 -0.1948E-22  0.9000E+01
     -5.468 -0.6837E-19  0.9000E+01
     -5.347 -0.1154E-15  0.9000E+01
     -5.227 -0.9037E-13  0.9000E+01
     -5.106 -0.3487E-10  0.9000E+01
     -4.986 -0.6423E-08  0.9000E+01
     -4.865 -0.5622E-06  0.9000E+01
     -4.745 -0.2317E-04  0.9000E+01
     -4.624 -0.4412E-03  0.9000E+01
     -4.504 -0.3686E-02  0.8999E+01
     -4.384 -0.1102E-01  0.8998E+01
     -4.263  0.8492E-02  0.8999E+01
     -4.143  0.1158E+00  0.9013E+01
     -4.022  0.3123E+00  0.9051E+01
     -3.902  0.5851E+00  0.9121E+01
     -3.781  0.8651E+00  0.9225E+01
     -3.661  0.9490E+00  0.9340E+01
     -3.540  0.9474E+00  0.9454E+01
     -3.420  0.1038E+01  0.9579E+01
     -3.299  0.1039E+01  0.9704E+01
     -3.179  0.9656E+00  0.9821E+01
     -3.058  0.9617E+00  0.9937E+01
     -2.938  0.9541E+00  0.1005E+02
     -2.817  0.9903E+00  0.1017E+02
     -2.697  0.1335E+01  0.1033E+02
     -2.576  0.1627E+01  0.1053E+02
     -2.456  0.1611E+01  0.1072E+02
     -2.335  0.1674E+01  0.1092E+02
     -2.215  0.1711E+01  0.1113E+02
     -2.094  0.1501E+01  0.1131E+02
     -1.974  0.1288E+01  0.1147E+02
     -1.853  0.1383E+01  0.1163E+02
     -1.733  0.1571E+01  0.1182E+02
     -1.612  0.1535E+01  0.1201E+02
     -1.492  0.1374E+01  0.1217E+02
     -1.371  0.1152E+01  0.1231E+02
     -1.251  0.1103E+01  0.1244E+02
     -1.130  0.1238E+01  0.1259E+02
     -1.010  0.1214E+01  0.1274E+02
     -0.889  0.1155E+01  0.1288E+02
     -0.769  0.1091E+01  0.1301E+02
     -0.648  0.1023E+01  0.1313E+02
     -0.528  0.1169E+01  0.1327E+02
     -0.408  0.1453E+01  0.1345E+02
     -0.287  0.1644E+01  0.1365E+02
     -0.167  0.1747E+01  0.1386E+02
     -0.046  0.1660E+01  0.1406E+02
      0.074  0.1358E+01  0.1422E+02
      0.195  0.1014E+01  0.1434E+02
      0.315  0.6493E+00  0.1442E+02
      0.436  0.3298E+00  0.1446E+02
      0.556  0.2736E+00  0.1449E+02
      0.677  0.5304E+00  0.1456E+02
      0.797  0.8251E+00  0.1466E+02
      0.918  0.8612E+00  0.1476E+02
      1.038  0.6167E+00  0.1484E+02
      1.159  0.4527E+00  0.1489E+02
      1.279  0.5549E+00  0.1496E+02
      1.400  0.6783E+00  0.1504E+02
      1.520  0.7282E+00  0.1513E+02
      1.641  0.8308E+00  0.1523E+02
      1.761  0.9773E+00  0.1534E+02
      1.882  0.1103E+01  0.1548E+02
      2.002  0.1177E+01  0.1562E+02
      2.123  0.1376E+01  0.1579E+02
      2.243  0.1668E+01  0.1599E+02
      2.364  0.1662E+01  0.1619E+02
      2.484  0.1391E+01  0.1635E+02
      2.605  0.1209E+01  0.1650E+02
      2.725  0.1215E+01  0.1665E+02
      2.846  0.1263E+01  0.1680E+02
      2.966  0.1279E+01  0.1695E+02
      3.087  0.1425E+01  0.1712E+02
      3.207  0.1511E+01  0.1731E+02
      3.328  0.1310E+01  0.1746E+02
      3.448  0.1041E+01  0.1759E+02
      3.568  0.8388E+00  0.1769E+02
      3.689  0.7185E+00  0.1778E+02
      3.809  0.6969E+00  0.1786E+02
      3.930  0.5882E+00  0.1793E+02
      4.050  0.4276E+00  0.1798E+02
      4.171  0.3532E+00  0.1803E+02
      4.291  0.3287E+00  0.1807E+02
      4.412  0.3722E+00  0.1811E+02
      4.532  0.4804E+00  0.1817E+02
      4.653  0.5840E+00  0.1824E+02
      4.773  0.6861E+00  0.1832E+02
      4.894  0.8945E+00  0.1843E+02
      5.014  0.1112E+01  0.1856E+02
      5.135  0.1228E+01  0.1871E+02
      5.255  0.1323E+01  0.1887E+02
      5.376  0.1405E+01  0.1904E+02
      5.496  0.1449E+01  0.1921E+02
      5.617  0.1530E+01  0.1940E+02
      5.737  0.1580E+01  0.1959E+02
      5.858  0.1574E+01  0.1978E+02
      5.978  0.1617E+01  0.1997E+02
      6.099  0.1769E+01  0.2019E+02
      6.219  0.1889E+01  0.2041E+02
      6.340  0.1857E+01  0.2064E+02
      6.460  0.1813E+01  0.2086E+02
      6.581  0.1809E+01  0.2107E+02
      6.701  0.1850E+01  0.2130E+02
      6.822  0.1935E+01  0.2153E+02
      6.942  0.1995E+01  0.2177E+02
      7.063  0.2037E+01  0.2202E+02
      7.183  0.2091E+01  0.2227E+02
      7.304  0.2092E+01  0.2252E+02
      7.424  0.2069E+01  0.2277E+02
      7.545  0.2122E+01  0.2302E+02
      7.665  0.2114E+01  0.2328E+02
      7.785  0.2047E+01  0.2353E+02
      7.906  0.2051E+01  0.2377E+02
      8.026  0.2124E+01  0.2403E+02
      8.147  0.2159E+01  0.2429E+02
      8.267  0.2237E+01  0.2456E+02
      8.388  0.2392E+01  0.2485E+02
      8.508  0.2399E+01  0.2514E+02
      8.629  0.2049E+01  0.2538E+02
      8.749  0.1287E+01  0.2554E+02
      8.870  0.4843E+00  0.2560E+02
      8.990  0.7062E-01  0.2560E+02
      9.111 -0.2170E-01  0.2560E+02
      9.231 -0.1465E-01  0.2560E+02
      9.352 -0.3385E-02  0.2560E+02
      9.472 -0.3606E-03  0.2560E+02
      9.593 -0.1822E-04  0.2560E+02
      9.713 -0.4410E-06  0.2560E+02
      9.834 -0.5148E-08  0.2560E+02
      9.954 -0.2913E-10  0.2560E+02
     10.075 -0.8010E-13  0.2560E+02
     10.195 -0.1024E-15  0.2560E+02
     10.316  0.0000E+00  0.2560E+02
     10.436  0.0000E+00  0.2560E+02
     10.557  0.0000E+00  0.2560E+02
     10.677  0.0000E+00  0.2560E+02
     10.798  0.0000E+00  0.2560E+02
     10.918  0.0000E+00  0.2560E+02
     10.91808728    -25.22742674  301      0.27436055      1.00000000
    -25.227  0.0000E+00  0.0000E+00  0.0000E+00  0.0000E+00  0.0000E+00  0.0000E+00  0.0000E+00  0.0000E+00  0.0000E+00
    -25.107  0.0000E+00  0.0000E+00  0.0000E+00  0.0000E+00  0.0000E+00  0.0000E+00  0.0000E+00  0.0000E+00  0.0000E+00
    -24.986  0.0000E+00  0.0000E+00  0.0000E+00  0.0000E+00  0.0000E+00  0.0000E+00  0.0000E+00  0.0000E+00  0.0000E+00
    -24.866 -0.1614E-38 -0.8177E-38 -0.4655E-38 -0.3536E-38 -0.7313E-36 -0.4880E-36 -0.1908E-36 -0.2671E-36 -0.4556E-36
    -24.745 -0.2497E-34 -0.1121E-33 -0.6934E-34 -0.7053E-34 -0.3084E-29 -0.1032E-29 -0.4116E-31 -0.3860E-30 -0.8925E-30
    -24.625 -0.1985E-30 -0.7708E-30 -0.5288E-30 -0.7012E-30 -0.5213E-25 -0.1756E-25 -0.8387E-27 -0.7105E-26 -0.1638E-25
    -24.505 -0.9174E-27 -0.2888E-26 -0.2355E-26 -0.4187E-26 -0.4243E-21 -0.1435E-21 -0.7672E-23 -0.6287E-22 -0.1449E-21
    -24.384 -0.2573E-23 -0.6400E-23 -0.6340E-23 -0.1407E-22 -0.1661E-17 -0.5656E-18 -0.3520E-19 -0.2686E-18 -0.6177E-18
    -24.264 -0.4301E-20 -0.9077E-20 -0.1005E-19 -0.2485E-19 -0.3125E-14 -0.1075E-14 -0.8094E-16 -0.5536E-15 -0.1266E-14
    -24.143 -0.3826E-17 -0.7384E-17 -0.8285E-17 -0.2116E-16 -0.2724E-11 -0.9534E-12 -0.9042E-13 -0.5324E-12 -0.1205E-11
    -24.023 -0.1813E-14 -0.3285E-14 -0.3541E-14 -0.8987E-14 -0.1165E-08 -0.4182E-09 -0.5178E-10 -0.2531E-09 -0.5631E-09
    -23.902 -0.4354E-12 -0.7364E-12 -0.7452E-12 -0.1830E-11 -0.2366E-06 -0.8827E-07 -0.1471E-07 -0.5783E-07 -0.1252E-06
    -23.782 -0.5252E-10 -0.8062E-10 -0.7629E-10 -0.1768E-09 -0.2263E-04 -0.8946E-05 -0.2048E-05 -0.6329E-05 -0.1315E-04
    -23.661 -0.3152E-08 -0.4228E-08 -0.3768E-08 -0.8003E-08 -0.1004E-02 -0.4325E-03 -0.1372E-03 -0.3294E-03 -0.6431E-03
    -23.541 -0.9193E-07 -0.1035E-06 -0.8825E-07 -0.1650E-06 -0.1999E-01 -0.9775E-02 -0.4300E-02 -0.7990E-02 -0.1422E-01
    -23.420 -0.1231E-05 -0.1112E-05 -0.9297E-06 -0.1436E-05 -0.1629E+00 -0.9719E-01 -0.5946E-01 -0.8533E-01 -0.1316E+00
    -23.300 -0.6393E-05 -0.4154E-05 -0.3558E-05 -0.3745E-05 -0.3469E+00 -0.3302E+00 -0.3058E+00 -0.3210E+00 -0.3631E+00
    -23.179 -0.1676E-05  0.4329E-05  0.2897E-05  0.9676E-05  0.1326E+01  0.4552E+00 -0.3046E-01  0.3079E+00  0.8961E+00
    -23.059  0.7166E-04  0.5386E-04  0.4546E-04  0.5786E-04  0.6008E+01  0.4485E+01  0.3483E+01  0.4135E+01  0.5434E+01
    -22.938  0.1714E-03  0.9592E-04  0.8769E-04  0.8355E-04  0.7197E+01  0.7639E+01  0.7764E+01  0.7617E+01  0.7506E+01
    -22.818  0.1291E-03  0.5619E-04  0.5707E-04  0.4206E-04  0.2768E+01  0.4319E+01  0.5338E+01  0.4676E+01  0.3377E+01
    -22.697  0.2422E-04  0.5196E-05  0.8307E-05  0.2909E-05 -0.1069E+00  0.3366E+00  0.7065E+00  0.5073E+00  0.3059E-01
    -22.577 -0.6719E-05 -0.4195E-05 -0.3318E-05 -0.2960E-05 -0.2541E+00 -0.3395E+00 -0.3847E+00 -0.3486E+00 -0.2899E+00
    -22.456 -0.2906E-05 -0.1156E-05 -0.1195E-05 -0.8054E-06 -0.4859E-01 -0.8798E-01 -0.1187E+00 -0.1014E+00 -0.6217E-01
    -22.336 -0.4682E-06 -0.1152E-06 -0.1843E-06 -0.1074E-06 -0.3655E-02 -0.7803E-02 -0.1155E-01 -0.9728E-02 -0.5021E-02
    -22.215 -0.5161E-07 -0.6545E-08 -0.2098E-07 -0.1149E-07 -0.1262E-03 -0.3003E-03 -0.4791E-03 -0.4034E-03 -0.1837E-03
    -22.095 -0.3578E-08 -0.3524E-09 -0.1524E-08 -0.8394E-09 -0.2173E-05 -0.5548E-05 -0.9556E-05 -0.8069E-05 -0.3343E-05
    -21.974 -0.1286E-09 -0.2071E-10 -0.5841E-10 -0.3401E-10 -0.2175E-07 -0.5723E-07 -0.1086E-06 -0.9103E-07 -0.3562E-07
    -21.854 -0.2279E-11 -0.9095E-12 -0.1201E-11 -0.7991E-12 -0.1671E-09 -0.4241E-09 -0.8891E-09 -0.7278E-09 -0.2830E-09
    -21.733 -0.2089E-13 -0.2243E-13 -0.1522E-13 -0.1233E-13 -0.1099E-11 -0.2461E-11 -0.5343E-11 -0.4279E-11 -0.1721E-11
    -21.613 -0.1123E-15 -0.2783E-15 -0.1306E-15 -0.1231E-15 -0.5449E-14 -0.9350E-14 -0.1902E-13 -0.1501E-13 -0.6647E-14
    -21.492 -0.4015E-18 -0.1680E-17 -0.6915E-18 -0.6943E-18 -0.2008E-16 -0.2399E-16 -0.4049E-16 -0.3174E-16 -0.1720E-16
    -21.372 -0.8212E-21 -0.4888E-20 -0.1929E-20 -0.1983E-20 -0.4282E-19 -0.3050E-19 -0.2672E-19 -0.2026E-19 -0.2231E-19
    -21.251 -0.1153E-23 -0.6876E-23 -0.2817E-23 -0.2885E-23 -0.5984E-22 -0.4185E-22 -0.3703E-22 -0.2804E-22 -0.3044E-22
    -21.131  0.0000E+00  0.0000E+00  0.0000E+00  0.0000E+00  0.0000E+00  0.0000E+00  0.0000E+00  0.0000E+00  0.0000E+00
    -21.010  0.0000E+00  0.0000E+00  0.0000E+00  0.0000E+00  0.0000E+00  0.0000E+00  0.0000E+00  0.0000E+00  0.0000E+00
    -20.890  0.0000E+00  0.0000E+00  0.0000E+00  0.0000E+00  0.0000E+00  0.0000E+00  0.0000E+00  0.0000E+00  0.0000E+00
    -20.769  0.0000E+00  0.0000E+00  0.0000E+00  0.0000E+00  0.0000E+00  0.0000E+00  0.0000E+00  0.0000E+00  0.0000E+00
    -20.649  0.0000E+00  0.0000E+00  0.0000E+00  0.0000E+00  0.0000E+00  0.0000E+00  0.0000E+00  0.0000E+00  0.0000E+00
    -20.529  0.0000E+00  0.0000E+00  0.0000E+00  0.0000E+00  0.0000E+00  0.0000E+00  0.0000E+00  0.0000E+00  0.0000E+00
    -20.408  0.0000E+00  0.0000E+00  0.0000E+00  0.0000E+00  0.0000E+00  0.0000E+00  0.0000E+00  0.0000E+00  0.0000E+00
    -20.288  0.0000E+00  0.0000E+00  0.0000E+00  0.0000E+00  0.0000E+00  0.0000E+00  0.0000E+00  0.0000E+00  0.0000E+00
    -20.167  0.0000E+00  0.0000E+00  0.0000E+00  0.0000E+00  0.0000E+00  0.0000E+00  0.0000E+00  0.0000E+00  0.0000E+00
    -20.047  0.0000E+00  0.0000E+00  0.0000E+00  0.0000E+00  0.0000E+00  0.0000E+00  0.0000E+00  0.0000E+00  0.0000E+00
    -19.926  0.0000E+00  0.0000E+00  0.0000E+00  0.0000E+00  0.0000E+00  0.0000E+00  0.0000E+00  0.0000E+00  0.0000E+00
    -19.806  0.0000E+00  0.0000E+00  0.0000E+00  0.0000E+00  0.0000E+00  0.0000E+00  0.0000E+00  0.0000E+00  0.0000E+00
    -19.685  0.0000E+00  0.0000E+00  0.0000E+00  0.0000E+00  0.0000E+00  0.0000E+00  0.0000E+00  0.0000E+00  0.0000E+00
    -19.565  0.0000E+00  0.0000E+00  0.0000E+00  0.0000E+00  0.0000E+00  0.0000E+00  0.0000E+00  0.0000E+00  0.0000E+00
    -19.444  0.0000E+00  0.0000E+00  0.0000E+00  0.0000E+00  0.0000E+00  0.0000E+00  0.0000E+00  0.0000E+00  0.0000E+00
    -19.324  0.0000E+00  0.0000E+00  0.0000E+00  0.0000E+00  0.0000E+00  0.0000E+00  0.0000E+00  0.0000E+00  0.0000E+00
    -19.203  0.0000E+00  0.0000E+00  0.0000E+00  0.0000E+00  0.0000E+00  0.0000E+00  0.0000E+00  0.0000E+00  0.0000E+00
    -19.083  0.0000E+00  0.0000E+00  0.0000E+00  0.0000E+00  0.0000E+00  0.0000E+00  0.0000E+00  0.0000E+00  0.0000E+00
    -18.962  0.0000E+00  0.0000E+00  0.0000E+00  0.0000E+00  0.0000E+00  0.0000E+00  0.0000E+00  0.0000E+00  0.0000E+00
    -18.842  0.0000E+00  0.0000E+00  0.0000E+00  0.0000E+00  0.0000E+00  0.0000E+00  0.0000E+00  0.0000E+00  0.0000E+00
    -18.721  0.0000E+00  0.0000E+00  0.0000E+00  0.0000E+00  0.0000E+00  0.0000E+00  0.0000E+00  0.0000E+00  0.0000E+00
    -18.601  0.0000E+00  0.0000E+00  0.0000E+00  0.0000E+00  0.0000E+00  0.0000E+00  0.0000E+00  0.0000E+00  0.0000E+00
    -18.480  0.0000E+00  0.0000E+00  0.0000E+00  0.0000E+00  0.0000E+00  0.0000E+00  0.0000E+00  0.0000E+00  0.0000E+00
    -18.360  0.0000E+00  0.0000E+00  0.0000E+00  0.0000E+00  0.0000E+00  0.0000E+00  0.0000E+00  0.0000E+00  0.0000E+00
    -18.239  0.0000E+00  0.0000E+00  0.0000E+00  0.0000E+00  0.0000E+00  0.0000E+00  0.0000E+00  0.0000E+00  0.0000E+00
    -18.119  0.0000E+00  0.0000E+00  0.0000E+00  0.0000E+00  0.0000E+00  0.0000E+00  0.0000E+00  0.0000E+00  0.0000E+00
    -17.998  0.0000E+00  0.0000E+00  0.0000E+00  0.0000E+00  0.0000E+00  0.0000E+00  0.0000E+00  0.0000E+00  0.0000E+00
    -17.878  0.0000E+00  0.0000E+00  0.0000E+00  0.0000E+00  0.0000E+00  0.0000E+00  0.0000E+00  0.0000E+00  0.0000E+00
    -17.757  0.0000E+00  0.0000E+00  0.0000E+00  0.0000E+00  0.0000E+00  0.0000E+00  0.0000E+00  0.0000E+00  0.0000E+00
    -17.637  0.0000E+00  0.0000E+00  0.0000E+00  0.0000E+00  0.0000E+00  0.0000E+00  0.0000E+00  0.0000E+00  0.0000E+00
    -17.516  0.0000E+00  0.0000E+00  0.0000E+00  0.0000E+00  0.0000E+00  0.0000E+00  0.0000E+00  0.0000E+00  0.0000E+00
    -17.396  0.0000E+00  0.0000E+00  0.0000E+00  0.0000E+00  0.0000E+00  0.0000E+00  0.0000E+00  0.0000E+00  0.0000E+00
    -17.275  0.0000E+00  0.0000E+00  0.0000E+00  0.0000E+00  0.0000E+00  0.0000E+00  0.0000E+00  0.0000E+00  0.0000E+00
    -17.155  0.0000E+00  0.0000E+00  0.0000E+00  0.0000E+00  0.0000E+00  0.0000E+00  0.0000E+00  0.0000E+00  0.0000E+00
    -17.034  0.0000E+00  0.0000E+00  0.0000E+00  0.0000E+00  0.0000E+00  0.0000E+00  0.0000E+00  0.0000E+00  0.0000E+00
    -16.914  0.0000E+00  0.0000E+00  0.0000E+00  0.0000E+00  0.0000E+00  0.0000E+00  0.0000E+00  0.0000E+00  0.0000E+00
    -16.793  0.0000E+00  0.0000E+00  0.0000E+00  0.0000E+00  0.0000E+00  0.0000E+00  0.0000E+00  0.0000E+00  0.0000E+00
    -16.673  0.0000E+00  0.0000E+00  0.0000E+00  0.0000E+00  0.0000E+00  0.0000E+00  0.0000E+00  0.0000E+00  0.0000E+00
    -16.553  0.0000E+00  0.0000E+00  0.0000E+00  0.0000E+00  0.0000E+00  0.0000E+00  0.0000E+00  0.0000E+00  0.0000E+00
    -16.432  0.0000E+00  0.0000E+00  0.0000E+00  0.0000E+00  0.0000E+00  0.0000E+00  0.0000E+00  0.0000E+00  0.0000E+00
    -16.312  0.0000E+00  0.0000E+00  0.0000E+00  0.0000E+00  0.0000E+00  0.0000E+00  0.0000E+00  0.0000E+00  0.0000E+00
    -16.191  0.0000E+00  0.0000E+00  0.0000E+00  0.0000E+00  0.0000E+00  0.0000E+00  0.0000E+00  0.0000E+00  0.0000E+00
    -16.071  0.0000E+00  0.0000E+00  0.0000E+00  0.0000E+00  0.0000E+00  0.0000E+00  0.0000E+00  0.0000E+00  0.0000E+00
    -15.950  0.0000E+00  0.0000E+00  0.0000E+00  0.0000E+00  0.0000E+00  0.0000E+00  0.0000E+00  0.0000E+00  0.0000E+00
    -15.830  0.0000E+00  0.0000E+00  0.0000E+00  0.0000E+00  0.0000E+00  0.0000E+00  0.0000E+00  0.0000E+00  0.0000E+00
    -15.709  0.0000E+00  0.0000E+00  0.0000E+00  0.0000E+00  0.0000E+00  0.0000E+00  0.0000E+00  0.0000E+00  0.0000E+00
    -15.589  0.0000E+00  0.0000E+00  0.0000E+00  0.0000E+00  0.0000E+00  0.0000E+00  0.0000E+00  0.0000E+00  0.0000E+00
    -15.468  0.0000E+00  0.0000E+00  0.0000E+00  0.0000E+00  0.0000E+00  0.0000E+00  0.0000E+00  0.0000E+00  0.0000E+00
    -15.348  0.0000E+00  0.0000E+00  0.0000E+00  0.0000E+00  0.0000E+00  0.0000E+00  0.0000E+00  0.0000E+00  0.0000E+00
    -15.227  0.0000E+00  0.0000E+00  0.0000E+00  0.0000E+00  0.0000E+00  0.0000E+00  0.0000E+00  0.0000E+00  0.0000E+00
    -15.107  0.0000E+00  0.0000E+00  0.0000E+00  0.0000E+00  0.0000E+00  0.0000E+00  0.0000E+00  0.0000E+00  0.0000E+00
    -14.986  0.0000E+00  0.0000E+00  0.0000E+00  0.0000E+00  0.0000E+00  0.0000E+00  0.0000E+00  0.0000E+00  0.0000E+00
    -14.866  0.0000E+00  0.0000E+00  0.0000E+00  0.0000E+00  0.0000E+00  0.0000E+00  0.0000E+00  0.0000E+00  0.0000E+00
    -14.745  0.0000E+00  0.0000E+00  0.0000E+00  0.0000E+00  0.0000E+00  0.0000E+00  0.0000E+00  0.0000E+00  0.0000E+00
    -14.625  0.0000E+00  0.0000E+00  0.0000E+00  0.0000E+00  0.0000E+00  0.0000E+00  0.0000E+00  0.0000E+00  0.0000E+00
    -14.504  0.0000E+00  0.0000E+00  0.0000E+00  0.0000E+00  0.0000E+00  0.0000E+00  0.0000E+00  0.0000E+00  0.0000E+00
    -14.384  0.0000E+00  0.0000E+00  0.0000E+00  0.0000E+00  0.0000E+00  0.0000E+00  0.0000E+00  0.0000E+00  0.0000E+00
    -14.263 -0.1533E-31 -0.1405E-36 -0.1637E-33 -0.5494E-34 -0.1016E-34 -0.3029E-34 -0.2012E-35 -0.5004E-36 -0.2705E-35
    -14.143 -0.2066E-27 -0.2384E-32 -0.2205E-29 -0.7415E-30 -0.1371E-30 -0.4080E-30 -0.2713E-31 -0.6786E-32 -0.3649E-31
    -14.022 -0.1345E-23 -0.1894E-28 -0.1435E-25 -0.4836E-26 -0.8941E-27 -0.2655E-26 -0.1768E-27 -0.4444E-28 -0.2379E-27
    -13.902 -0.4231E-20 -0.8105E-25 -0.4514E-22 -0.1525E-22 -0.2819E-23 -0.8348E-23 -0.5575E-24 -0.1422E-24 -0.7497E-24
    -13.781 -0.6330E-17 -0.1886E-21 -0.6748E-19 -0.2288E-19 -0.4224E-20 -0.1247E-19 -0.8387E-21 -0.2216E-21 -0.1123E-20
    -13.661 -0.4576E-14 -0.2326E-18 -0.4867E-16 -0.1657E-16 -0.3052E-17 -0.8975E-17 -0.6132E-18 -0.1745E-18 -0.8107E-18
    -13.540 -0.1621E-11 -0.1542E-15 -0.1716E-13 -0.5868E-14 -0.1076E-14 -0.3148E-14 -0.2226E-15 -0.7298E-16 -0.2855E-15
    -13.420 -0.2791E-09 -0.5245E-13 -0.2922E-11 -0.1006E-11 -0.1826E-12 -0.5304E-12 -0.4032E-13 -0.1674E-13 -0.4835E-13
    -13.299 -0.2365E-07 -0.8968E-11 -0.2417E-09 -0.8387E-10 -0.1489E-10 -0.4280E-10 -0.3768E-11 -0.2163E-11 -0.3926E-11
    -13.179 -0.1015E-05 -0.7604E-09 -0.9853E-08 -0.3461E-08 -0.5850E-09 -0.1649E-08 -0.1911E-09 -0.1557E-09 -0.1524E-09
    -13.058 -0.2328E-04 -0.3154E-07 -0.2054E-06 -0.7366E-07 -0.1127E-07 -0.3044E-07 -0.5493E-08 -0.5967E-08 -0.2836E-08
    -12.938 -0.3025E-03 -0.6240E-06 -0.2329E-05 -0.8646E-06 -0.1122E-06 -0.2747E-06 -0.8837E-07 -0.1145E-06 -0.2565E-07
    -12.817 -0.2156E-02 -0.5511E-05 -0.1456E-04 -0.5714E-05 -0.6301E-06 -0.1250E-05 -0.7162E-06 -0.1005E-05 -0.1146E-06
    -12.697 -0.6308E-02 -0.1682E-04 -0.3807E-04 -0.1694E-04 -0.1842E-05 -0.2284E-05 -0.2174E-05 -0.3109E-05 -0.1950E-06
    -12.576  0.5895E-02  0.2099E-04  0.5213E-04  0.1090E-04  0.1856E-06  0.5518E-05  0.2296E-05  0.3353E-05  0.5675E-06
    -12.456  0.7012E-01  0.1992E-03  0.4912E-03  0.1860E-03  0.1863E-04  0.3843E-04  0.2476E-04  0.3433E-04  0.3782E-05
    -12.336  0.1795E+00  0.4029E-03  0.1191E-02  0.5148E-03  0.6303E-04  0.9846E-04  0.5646E-04  0.7514E-04  0.9056E-05
    -12.215  0.3695E+00  0.5096E-03  0.2244E-02  0.1055E-02  0.1456E-03  0.2105E-03  0.9409E-04  0.1214E-03  0.1607E-04
    -12.095  0.5816E+00  0.7188E-03  0.3415E-02  0.1757E-02  0.2677E-03  0.3643E-03  0.1396E-03  0.1838E-03  0.2620E-04
    -11.974  0.5886E+00  0.1884E-02  0.3422E-02  0.2090E-02  0.3816E-03  0.4790E-03  0.2095E-03  0.3511E-03  0.3602E-04
    -11.854  0.4996E+00  0.3748E-02  0.2832E-02  0.2214E-02  0.5000E-03  0.5742E-03  0.3071E-03  0.6074E-03  0.4604E-04
    -11.733  0.4315E+00  0.3770E-02  0.2509E-02  0.2320E-02  0.5752E-03  0.5867E-03  0.2916E-03  0.5840E-03  0.5405E-04
    -11.613  0.4335E+00  0.3276E-02  0.2446E-02  0.2433E-02  0.6219E-03  0.5805E-03  0.2484E-03  0.5189E-03  0.6745E-04
    -11.492  0.5830E+00  0.4935E-02  0.2630E-02  0.2645E-02  0.7118E-03  0.6863E-03  0.3498E-03  0.8496E-03  0.9547E-04
    -11.372  0.7643E+00  0.6130E-02  0.3037E-02  0.2995E-02  0.8427E-03  0.8221E-03  0.4196E-03  0.1076E-02  0.1313E-03
    -11.251  0.7695E+00  0.4650E-02  0.2966E-02  0.2980E-02  0.8586E-03  0.7621E-03  0.3181E-03  0.7989E-03  0.1370E-03
    -11.131  0.6268E+00  0.2330E-02  0.2178E-02  0.2472E-02  0.7238E-03  0.5251E-03  0.1728E-03  0.3820E-03  0.9529E-04
    -11.010  0.4002E+00  0.7063E-03  0.1169E-02  0.1503E-02  0.4424E-03  0.2603E-03  0.6897E-04  0.1123E-03  0.4315E-04
    -10.890  0.1264E+00 -0.2694E-03  0.1323E-03  0.5804E-05 -0.5177E-06 -0.7301E-05  0.1172E-06 -0.2259E-04  0.6864E-05
    -10.769 -0.9743E-02 -0.7330E-03 -0.5146E-03 -0.1143E-02 -0.3389E-03 -0.1840E-03 -0.3027E-04 -0.7613E-04 -0.9422E-05
    -10.649 -0.2168E-02  0.2442E-02  0.1412E-02  0.3051E-02  0.9294E-03  0.5638E-03  0.8387E-04  0.2228E-03  0.2190E-04
    -10.528  0.3914E-01  0.1179E-01  0.7778E-02  0.1728E-01  0.5181E-02  0.2934E-02  0.4395E-03  0.1141E-02  0.1274E-03
    -10.408  0.4960E-01  0.1842E-01  0.1121E-01  0.2413E-01  0.7245E-02  0.4260E-02  0.6661E-03  0.1830E-02  0.2050E-03
    -10.287  0.2130E-01  0.1902E-01  0.7530E-02  0.1306E-01  0.4078E-02  0.3161E-02  0.5710E-03  0.1870E-02  0.1908E-03
    -10.167 -0.7072E-02  0.1783E-01  0.3887E-02  0.3151E-02  0.1218E-02  0.2000E-02  0.4345E-03  0.1684E-02  0.1524E-03
    -10.046  0.4512E-01  0.1048E-01  0.1776E-02  0.4606E-03  0.3157E-03  0.1024E-02  0.2409E-03  0.9536E-03  0.7847E-04
     -9.926  0.2686E+00  0.3522E-02  0.7550E-03  0.4873E-03  0.2055E-03  0.4076E-03  0.9764E-04  0.2773E-03  0.1151E-04
     -9.805  0.4769E+00  0.2509E-02  0.1133E-02  0.1763E-02  0.5614E-03  0.4809E-03  0.9388E-04  0.1681E-03  0.4868E-06
     -9.685  0.4482E+00  0.1903E-02  0.1439E-02  0.2701E-02  0.8273E-03  0.5291E-03  0.8177E-04  0.1388E-03  0.6937E-05
     -9.564  0.4314E+00  0.9896E-03  0.1779E-02  0.3619E-02  0.1083E-02  0.5540E-03  0.6434E-04  0.9103E-04  0.1264E-04
     -9.444  0.5382E+00  0.1186E-02  0.2184E-02  0.4292E-02  0.1282E-02  0.6310E-03  0.7541E-04  0.1011E-03  0.1847E-04
     -9.323  0.6739E+00  0.1903E-02  0.2165E-02  0.4225E-02  0.1276E-02  0.5707E-03  0.8892E-04  0.1022E-03  0.2588E-04
     -9.203  0.7823E+00  0.3384E-02  0.1842E-02  0.3633E-02  0.1107E-02  0.4279E-03  0.1113E-03  0.1084E-03  0.3688E-04
     -9.082  0.7700E+00  0.5848E-02  0.1227E-02  0.2253E-02  0.6894E-03  0.2569E-03  0.1431E-03  0.1560E-03  0.4406E-04
     -8.962  0.5417E+00  0.6263E-02  0.5667E-03  0.9241E-03  0.2808E-03  0.1258E-03  0.1296E-03  0.1703E-03  0.3372E-04
     -8.841  0.1902E+00  0.3325E-02  0.1964E-03  0.3158E-03  0.9160E-04  0.7073E-04  0.6515E-04  0.1085E-03  0.2575E-04
     -8.721  0.2078E-01  0.1488E-02  0.3633E-03  0.4543E-03  0.1559E-03  0.1538E-03  0.3585E-04  0.9759E-04  0.4770E-04
     -8.600  0.3702E-01  0.2049E-02  0.7705E-03  0.7147E-03  0.2815E-03  0.3032E-03  0.4281E-04  0.1465E-03  0.7186E-04
     -8.480  0.7863E-01  0.1912E-02  0.1048E-02  0.7595E-03  0.2999E-03  0.3544E-03  0.3302E-04  0.1262E-03  0.7948E-04
     -8.360  0.9981E-01  0.1013E-02  0.1233E-02  0.7423E-03  0.2568E-03  0.3344E-03  0.1989E-04  0.7143E-04  0.8844E-04
     -8.239  0.1111E+00  0.4624E-03  0.1193E-02  0.6385E-03  0.1891E-03  0.2687E-03  0.2369E-04  0.3516E-04  0.8708E-04
     -8.119  0.8076E-01  0.1720E-03  0.7283E-03  0.3495E-03  0.8882E-04  0.1399E-03  0.2225E-04  0.1051E-04  0.5365E-04
     -7.998  0.2542E-01  0.6119E-04  0.2439E-03  0.1029E-03  0.2185E-04  0.4171E-04  0.8042E-05  0.3606E-05  0.1564E-04
     -7.878  0.2327E-02  0.5678E-04  0.9860E-04  0.3572E-04  0.6872E-05  0.1789E-04  0.5927E-06  0.5340E-05  0.3267E-05
     -7.757  0.1941E-02  0.4708E-04  0.9372E-04  0.3238E-04  0.6139E-05  0.1702E-04  0.1752E-06  0.4694E-05  0.3576E-05
     -7.637  0.1172E-02  0.1623E-04  0.4363E-04  0.1444E-04  0.2559E-05  0.7661E-05  0.7621E-07  0.1708E-05  0.1869E-05
     -7.516 -0.5084E-04 -0.7279E-06  0.1200E-05  0.7615E-07 -0.7477E-07  0.1363E-06 -0.5332E-07 -0.2391E-07  0.4565E-07
     -7.396 -0.1539E-03 -0.1740E-05 -0.4215E-05 -0.1511E-05 -0.2982E-06 -0.7614E-06 -0.2598E-07 -0.1697E-06 -0.1895E-06
     -7.275 -0.3551E-04 -0.3849E-06 -0.1069E-05 -0.3704E-06 -0.6955E-07 -0.1898E-06 -0.4100E-08 -0.3962E-07 -0.4794E-07
     -7.155 -0.3246E-05 -0.3420E-07 -0.1015E-06 -0.3467E-07 -0.6351E-08 -0.1787E-07 -0.2995E-09 -0.3616E-08 -0.4554E-08
     -7.034 -0.1350E-06 -0.1388E-08 -0.4294E-08 -0.1456E-08 -0.2622E-09 -0.7520E-09 -0.1086E-10 -0.1493E-09 -0.1931E-09
     -6.914 -0.2651E-08 -0.2663E-10 -0.8489E-10 -0.2863E-10 -0.5096E-11 -0.1481E-10 -0.1969E-12 -0.2896E-11 -0.3825E-11
     -6.793 -0.2486E-10 -0.2442E-12 -0.7973E-12 -0.2679E-12 -0.4728E-13 -0.1387E-12 -0.1764E-14 -0.2677E-13 -0.3598E-13
     -6.673 -0.1118E-12 -0.1075E-14 -0.3582E-14 -0.1200E-14 -0.2105E-15 -0.6220E-15 -0.7732E-17 -0.1186E-15 -0.1618E-15
     -6.552 -0.2416E-15 -0.2275E-17 -0.7716E-17 -0.2582E-17 -0.4509E-18 -0.1338E-17 -0.1642E-19 -0.2521E-18 -0.3490E-18
     -6.432 -0.3732E-18 -0.4141E-20 -0.1254E-19 -0.4178E-20 -0.7233E-21 -0.2170E-20 -0.2624E-22 -0.4516E-21 -0.5697E-21