       N       E                     dE             d eps       ncg     rms          rms(c)
DAV:   1     0.166522755690E+04    0.16652E+04   -0.98888E+04 14336   0.618E+02
DAV:   2     0.689227232267E+01   -0.16583E+04   -0.16278E+04 17920   0.196E+02
DAV:   3    -0.104023846942E+03   -0.11092E+03   -0.11074E+03 17536   0.626E+01
DAV:   4    -0.107186897572E+03   -0.31631E+01   -0.31629E+01 24960   0.116E+01
DAV:   5    -0.107210939984E+03   -0.24042E-01   -0.24042E-01 20608   0.753E-01    0.919E+00
RMM:   6    -0.103941470806E+03    0.32695E+01   -0.62888E+00 14350   0.288E+00    0.763E+00
RMM:   7    -0.101621685986E+03    0.23198E+01   -0.12134E+00 15801   0.178E+00    0.356E+00
RMM:   8    -0.101342738276E+03    0.27895E+00   -0.17904E-01 14786   0.567E-01    0.229E+00
RMM:   9    -0.101405184538E+03   -0.62446E-01   -0.59050E-02 15286   0.374E-01    0.223E+00
RMM:  10    -0.101140333356E+03    0.26485E+00   -0.84687E-02 14819   0.396E-01    0.996E-01
RMM:  11    -0.101102953900E+03    0.37379E-01   -0.21084E-02 15474   0.244E-01    0.268E-01
RMM:  12    -0.101104556715E+03   -0.16028E-02   -0.30766E-03 15175   0.850E-02    0.209E-01
RMM:  13    -0.101109600259E+03   -0.50435E-02   -0.10406E-03 15031   0.454E-02    0.318E-01
RMM:  14    -0.101106665238E+03    0.29350E-02   -0.58636E-04 15179   0.323E-02    0.102E-01
RMM:  15    -0.101109469737E+03   -0.28045E-02   -0.13366E-03 14336   0.422E-02    0.430E-02
RMM:  16    -0.101110921944E+03   -0.14522E-02   -0.38473E-04 14757   0.219E-02    0.284E-02
RMM:  17    -0.101111929504E+03   -0.10076E-02   -0.18671E-04 14185   0.161E-02    0.276E-02
RMM:  18    -0.101112197613E+03   -0.26811E-03    0.53368E-04 13649   0.878E-03    0.134E-02
RMM:  19    -0.101110120111E+03    0.20775E-02    0.52285E-03 12713   0.610E-03    0.203E-02
RMM:  20    -0.101117432452E+03   -0.73123E-02    0.62855E-02 13107  -0.373E-03    0.894E-02
RMM:  21    -0.101166552673E+03   -0.49120E-01   -0.57143E-02 11742   0.149E-02    0.261E-01
RMM:  22    -0.101261255353E+03   -0.94703E-01   -0.84944E-01 12707   0.103E-01    0.328E-01
RMM:  23    -0.101309971857E+03   -0.48717E-01   -0.17418E+00 13774   0.180E-01    0.559E-01
RMM:  24    -0.101392905497E+03   -0.82934E-01   -0.21886E+00 13800   0.250E-01    0.582E-01
RMM:  25    -0.101494841109E+03   -0.10194E+00   -0.40753E+00 15196   0.410E-01    0.796E-01
RMM:  26    -0.101506193898E+03   -0.11353E-01   -0.55550E+00 15063   0.551E-01    0.833E-01
RMM:  27    -0.101595349102E+03   -0.89155E-01   -0.76539E+00 15032   0.643E-01    0.992E-01
RMM:  28    -0.101528265906E+03    0.67083E-01   -0.91592E+00 15064   0.769E-01    0.721E-01
RMM:  29    -0.101424792563E+03    0.10347E+00   -0.66014E+00 15204   0.532E-01    0.690E-01
RMM:  30    -0.101574687409E+03   -0.14989E+00   -0.51107E+00 15151   0.413E-01    0.653E-01
RMM:  31    -0.101424700055E+03    0.14999E+00   -0.69114E+00 15034   0.514E-01    0.506E-01
RMM:  32    -0.101247861043E+03    0.17684E+00   -0.39285E+00 14729   0.335E-01    0.318E-01
RMM:  33    -0.101412240544E+03   -0.16438E+00   -0.42845E+00 13806   0.305E-01    0.311E-01
RMM:  34    -0.101308437321E+03    0.10380E+00   -0.31957E+00 13235   0.259E-01    0.275E-01
RMM:  35    -0.101369374337E+03   -0.60937E-01   -0.20550E+00 13279   0.182E-01    0.232E-01
RMM:  36    -0.101412397841E+03   -0.43024E-01   -0.92282E-01 13295   0.119E-01    0.377E-01
RMM:  37    -0.101313502695E+03    0.98895E-01   -0.60750E+00 13246   0.390E-01    0.328E-01
RMM:  38    -0.101510779637E+03   -0.19728E+00   -0.31744E+00 13494   0.276E-01    0.596E-01
RMM:  39    -0.101477609699E+03    0.33170E-01   -0.68270E+00 13487   0.560E-01    0.495E-01
RMM:  40    -0.101365996622E+03    0.11161E+00   -0.65140E+00 13952   0.491E-01    0.470E-01
RMM:  41    -0.101519564991E+03   -0.15357E+00   -0.64344E+00 13857   0.481E-01    0.495E-01
RMM:  42    -0.101327048392E+03    0.19252E+00   -0.81149E+00 14030   0.573E-01    0.445E-01
RMM:  43    -0.101196165898E+03    0.13088E+00   -0.71265E+00 13566   0.496E-01    0.242E-01
RMM:  44    -0.101341576298E+03   -0.14541E+00   -0.38224E+00 13878   0.274E-01    0.382E-01
RMM:  45    -0.101304458392E+03    0.37118E-01   -0.57826E+00 13151   0.413E-01    0.328E-01
RMM:  46    -0.101382450418E+03   -0.77992E-01   -0.56517E+00 13529   0.383E-01    0.376E-01
RMM:  47    -0.101335865738E+03    0.46585E-01   -0.63013E+00 12797   0.434E-01    0.337E-01
RMM:  48    -0.101363703420E+03   -0.27838E-01   -0.50693E+00 13161   0.369E-01    0.373E-01
RMM:  49    -0.101393675313E+03   -0.29972E-01   -0.62414E+00 12735   0.425E-01    0.364E-01
RMM:  50    -0.101256057991E+03    0.13762E+00   -0.74333E+00 13507   0.476E-01    0.270E-01
RMM:  51    -0.101245296895E+03    0.10761E-01   -0.39423E+00 12686   0.289E-01    0.258E-01
RMM:  52    -0.101326235476E+03   -0.80939E-01   -0.39679E+00 13208   0.286E-01    0.383E-01
RMM:  53    -0.101203331396E+03    0.12290E+00   -0.66498E+00 12649   0.438E-01    0.254E-01
RMM:  54    -0.101175948993E+03    0.27382E-01   -0.42085E+00 13405   0.303E-01    0.219E-01
RMM:  55    -0.101206785923E+03   -0.30837E-01   -0.45377E+00 12344   0.274E-01    0.303E-01
RMM:  56    -0.101182838097E+03    0.23948E-01   -0.60247E+00 12914   0.386E-01    0.214E-01
RMM:  57    -0.101228654624E+03   -0.45817E-01   -0.39510E+00 12642   0.263E-01    0.307E-01
RMM:  58    -0.101196493995E+03    0.32161E-01   -0.55613E+00 12010   0.375E-01    0.301E-01
RMM:  59    -0.101174311579E+03    0.22182E-01   -0.61629E+00 12843   0.386E-01    0.200E-01
RMM:  60    -0.101197248989E+03   -0.22937E-01   -0.35107E+00 13069   0.242E-01    0.256E-01
RMM:  61    -0.101180272959E+03    0.16976E-01   -0.36964E+00 14971   0.269E-01    0.336E-01
RMM:  62    -0.101170586320E+03    0.96866E-02   -0.57373E+00 14018   0.388E-01    0.220E-01
RMM:  63    -0.101223267697E+03   -0.52681E-01   -0.45165E+00 14248   0.282E-01    0.362E-01
RMM:  64    -0.101214661775E+03    0.86059E-02   -0.75515E+00 12693   0.482E-01    0.344E-01
RMM:  65    -0.101253825974E+03   -0.39164E-01   -0.66232E+00 13219   0.426E-01    0.310E-01
RMM:  66    -0.101214705166E+03    0.39121E-01   -0.67732E+00 14945   0.428E-01    0.269E-01
RMM:  67    -0.101247535137E+03   -0.32830E-01   -0.52722E+00 14284   0.347E-01    0.439E-01
RMM:  68    -0.101184795824E+03    0.62739E-01   -0.89554E+00 12270   0.577E-01    0.280E-01
RMM:  69    -0.101300478988E+03   -0.11568E+00   -0.48215E+00 13734   0.331E-01    0.465E-01
RMM:  70    -0.101205887537E+03    0.94591E-01   -0.10198E+01 12344   0.624E-01    0.321E-01
RMM:  71    -0.101235930728E+03   -0.30043E-01   -0.56915E+00 13641   0.383E-01    0.410E-01
RMM:  72    -0.101190429585E+03    0.45501E-01   -0.69628E+00 12682   0.474E-01    0.245E-01
RMM:  73    -0.101265197657E+03   -0.74768E-01   -0.44330E+00 13842   0.292E-01    0.387E-01
RMM:  74    -0.101175003735E+03    0.90194E-01   -0.75395E+00 12264   0.488E-01    0.309E-01
RMM:  75    -0.101379420601E+03   -0.20442E+00   -0.50898E+00 13471   0.360E-01    0.530E-01
RMM:  76    -0.101238686811E+03    0.14073E+00   -0.11049E+01 14445   0.701E-01    0.292E-01
RMM:  77    -0.101289999454E+03   -0.51313E-01   -0.55756E+00 14200   0.362E-01    0.459E-01
RMM:  78    -0.101152669912E+03    0.13733E+00   -0.96286E+00 12482   0.608E-01    0.227E-01
RMM:  79    -0.101231236728E+03   -0.78567E-01   -0.39438E+00 13642   0.275E-01    0.425E-01
RMM:  80    -0.101254556779E+03   -0.23320E-01   -0.87235E+00 12353   0.554E-01
   1 F= -.10125456E+03 E0= -.10125763E+03  d E =-.101255E+03
       N       E                     dE             d eps       ncg     rms          rms(c)
DAV:   1    -0.101435758448E+03   -0.20452E+00   -0.22916E+02 14336   0.198E+01    0.950E-01
RMM:   2    -0.102060668244E+03   -0.62491E+00   -0.58946E+00 14386   0.411E+00    0.934E-01
RMM:   3    -0.102083268470E+03   -0.22600E-01   -0.60187E-01 17546   0.148E+00    0.855E-01
RMM:   4    -0.102046831560E+03    0.36437E-01   -0.13868E-02 14687   0.224E-01    0.404E-01
RMM:   5    -0.102043627453E+03    0.32041E-02   -0.26850E-03 17188   0.905E-02    0.275E-01
RMM:   6    -0.102045562545E+03   -0.19351E-02   -0.75357E-04 14692   0.425E-02    0.306E-01
RMM:   7    -0.102042792916E+03    0.27696E-02   -0.21608E-03 14452   0.872E-02    0.108E-01
RMM:   8    -0.102042671561E+03    0.12135E-03   -0.70537E-04 16181   0.479E-02    0.665E-02
RMM:   9    -0.102042523384E+03    0.14818E-03   -0.11172E-04 15793   0.165E-02    0.338E-02
RMM:  10    -0.102042506631E+03    0.16753E-04   -0.23764E-05 14552   0.111E-02    0.208E-02
RMM:  11    -0.102042519134E+03   -0.12503E-04   -0.36080E-05 14573   0.136E-02    0.826E-03
RMM:  12    -0.102042535769E+03   -0.16635E-04    0.16228E-05 15288   0.546E-03    0.509E-03
RMM:  13    -0.102042553482E+03   -0.17713E-04    0.40288E-05 11340   0.232E-03    0.272E-03
RMM:  14    -0.102042576715E+03   -0.23233E-04    0.68795E-05 11111   0.182E-03    0.160E-03
RMM:  15    -0.102042588852E+03   -0.12137E-04    0.12227E-04 10693   0.122E-03    0.107E-03
RMM:  16    -0.102042597581E+03   -0.87291E-05    0.16014E-04 10042   0.837E-04    0.580E-04
RMM:  17    -0.102042590728E+03    0.68523E-05    0.30041E-04  8566   0.550E-04    0.406E-04
RMM:  18    -0.102042595384E+03   -0.46553E-05    0.33901E-04  7994   0.382E-04    0.325E-04
RMM:  19    -0.102042587206E+03    0.81780E-05    0.36575E-04  7565   0.358E-04    0.420E-04
RMM:  20    -0.102042547536E+03    0.39670E-04    0.11908E-03  6905   0.269E-04    0.796E-04
RMM:  21    -0.102042526745E+03    0.20791E-04    0.13910E-03  6696   0.177E-04    0.984E-04
RMM:  22    -0.102042218778E+03    0.30797E-03    0.25963E-03  6712   0.642E-05    0.240E-03
RMM:  23    -0.102042419670E+03   -0.20089E-03    0.61120E-03  6720  -0.507E-04    0.235E-03
RMM:  24    -0.102041942915E+03    0.47676E-03    0.76013E-03  6689  -0.495E-04    0.731E-03
RMM:  25    -0.102040755151E+03    0.11878E-02    0.25358E-02  6837  -0.285E-03    0.719E-03
RMM:  26    -0.102038790485E+03    0.19647E-02    0.28338E-02  7119  -0.258E-03    0.194E-02
RMM:  27    -0.102042857446E+03   -0.40670E-02    0.35213E-02  8453  -0.272E-03    0.285E-02
RMM:  28    -0.102064396508E+03   -0.21539E-01   -0.31680E-01  9410   0.283E-02    0.136E-01
RMM:  29    -0.102110080854E+03   -0.45684E-01   -0.10299E+00 10518   0.980E-02    0.255E-01
RMM:  30    -0.102154490505E+03   -0.44410E-01   -0.29605E+00 12252   0.246E-01    0.333E-01
RMM:  31    -0.102255943734E+03   -0.10145E+00   -0.28544E+00 12929   0.216E-01    0.539E-01
RMM:  32    -0.102155768478E+03    0.10018E+00   -0.80449E+00 13346   0.557E-01    0.403E-01
RMM:  33    -0.102193918513E+03   -0.38150E-01   -0.64076E+00 13859   0.446E-01    0.494E-01
RMM:  34    -0.102154069629E+03    0.39849E-01   -0.73467E+00 13059   0.518E-01    0.361E-01
RMM:  35    -0.102089645649E+03    0.64424E-01   -0.52246E+00 13527   0.357E-01    0.219E-01
RMM:  36    -0.102194416860E+03   -0.10477E+00   -0.31687E+00 12576   0.243E-01    0.403E-01
RMM:  37    -0.102144961771E+03    0.49455E-01   -0.77351E+00 13016   0.501E-01    0.311E-01
RMM:  38    -0.102197945604E+03   -0.52984E-01   -0.38824E+00 12815   0.311E-01    0.293E-01
RMM:  39    -0.102164715673E+03    0.33230E-01   -0.51870E+00 12807   0.352E-01    0.331E-01
RMM:  40    -0.102110919517E+03    0.53796E-01   -0.52010E+00 12640   0.371E-01    0.216E-01
RMM:  41    -0.102069570830E+03    0.41349E-01   -0.32462E+00 12680   0.238E-01    0.788E-02
RMM:  42    -0.102083147205E+03   -0.13576E-01   -0.90318E-01 11496   0.710E-02    0.215E-01
RMM:  43    -0.102109625325E+03   -0.26478E-01   -0.28834E+00 11188   0.228E-01    0.282E-01
RMM:  44    -0.102113570949E+03   -0.39456E-02   -0.47412E+00 12647   0.332E-01    0.203E-01
RMM:  45    -0.102252412552E+03   -0.13884E+00   -0.35428E+00 12177   0.246E-01    0.419E-01
RMM:  46    -0.102138832468E+03    0.11358E+00   -0.73530E+00 12671   0.510E-01    0.288E-01
RMM:  47    -0.102103127435E+03    0.35705E-01   -0.58408E+00 12752   0.376E-01    0.214E-01
RMM:  48    -0.102072977152E+03    0.30150E-01   -0.40033E+00 12208   0.268E-01    0.124E-01
RMM:  49    -0.102127205156E+03   -0.54228E-01   -0.20018E+00 11266   0.145E-01    0.278E-01
RMM:  50    -0.102119970091E+03    0.72351E-02   -0.52919E+00 12021   0.347E-01    0.182E-01
RMM:  51    -0.102211707080E+03   -0.91737E-01   -0.31454E+00 12321   0.224E-01    0.372E-01
RMM:  52    -0.102115040028E+03    0.96667E-01   -0.76473E+00 12405   0.491E-01    0.219E-01
RMM:  53    -0.102167242304E+03   -0.52202E-01   -0.41007E+00 12629   0.278E-01    0.289E-01
RMM:  54    -0.102148170067E+03    0.19072E-01   -0.53689E+00 12035   0.361E-01    0.263E-01
RMM:  55    -0.102242747792E+03   -0.94578E-01   -0.42961E+00 11902   0.298E-01    0.365E-01
RMM:  56    -0.102139554206E+03    0.10319E+00   -0.74034E+00 12544   0.481E-01    0.224E-01
RMM:  57    -0.102186810815E+03   -0.47257E-01   -0.40844E+00 12604   0.269E-01    0.366E-01
RMM:  58    -0.102151381369E+03    0.35429E-01   -0.74380E+00 12637   0.486E-01    0.357E-01
RMM:  59    -0.102191794405E+03   -0.40413E-01   -0.61730E+00 12693   0.423E-01    0.397E-01
RMM:  60    -0.102094768127E+03    0.97026E-01   -0.72595E+00 12665   0.490E-01    0.212E-01
RMM:  61    -0.102159505018E+03   -0.64737E-01   -0.44339E+00 12620   0.282E-01    0.388E-01
RMM:  62    -0.102161479037E+03   -0.19740E-02   -0.73837E+00 12374   0.485E-01    0.312E-01
RMM:  63    -0.102150742952E+03    0.10736E-01   -0.59737E+00 12127   0.384E-01    0.306E-01
RMM:  64    -0.102131376494E+03    0.19366E-01   -0.60569E+00 12153   0.393E-01    0.222E-01
RMM:  65    -0.102174729320E+03   -0.43353E-01   -0.43843E+00 12371   0.281E-01    0.439E-01
RMM:  66    -0.102195530835E+03   -0.20802E-01   -0.87979E+00 12247   0.568E-01    0.422E-01
RMM:  67    -0.102193197688E+03    0.23331E-02   -0.82333E+00 13438   0.540E-01    0.347E-01
RMM:  68    -0.102149220360E+03    0.43977E-01   -0.68372E+00 12351   0.449E-01    0.223E-01
RMM:  69    -0.102137521945E+03    0.11698E-01   -0.46819E+00 12999   0.300E-01    0.320E-01
RMM:  70    -0.102165072894E+03   -0.27551E-01   -0.65401E+00 12230   0.425E-01    0.316E-01
RMM:  71    -0.102189754215E+03   -0.24681E-01   -0.65919E+00 12724   0.423E-01    0.381E-01
RMM:  72    -0.102202891922E+03   -0.13138E-01   -0.74790E+00 14832   0.492E-01    0.345E-01
RMM:  73    -0.102245554106E+03   -0.42662E-01   -0.71623E+00 13141   0.466E-01    0.382E-01
RMM:  74    -0.102237047994E+03    0.85061E-02   -0.76110E+00 13163   0.506E-01    0.400E-01
RMM:  75    -0.102153952166E+03    0.83096E-01   -0.88194E+00 12516   0.544E-01    0.272E-01
RMM:  76    -0.102191923419E+03   -0.37971E-01   -0.54618E+00 13018   0.358E-01    0.446E-01
RMM:  77    -0.102259535530E+03   -0.67612E-01   -0.88049E+00 13828   0.582E-01    0.441E-01
RMM:  78    -0.102176958004E+03    0.82578E-01   -0.91207E+00 13571   0.585E-01    0.320E-01
RMM:  79    -0.102183754979E+03   -0.67970E-02   -0.64768E+00 13240   0.420E-01    0.310E-01
RMM:  80    -0.102132816436E+03    0.50939E-01   -0.67216E+00 12276   0.412E-01
   2 F= -.10213282E+03 E0= -.10213433E+03  d E =-.878260E+00
       N       E                     dE             d eps       ncg     rms          rms(c)
DAV:   1    -0.966160789595E+02    0.55677E+01   -0.25154E+03 14336   0.895E+01    0.277E+00
RMM:   2    -0.103013317274E+03   -0.63972E+01   -0.65373E+01 14338   0.138E+01    0.133E+00
RMM:   3    -0.103380756693E+03   -0.36744E+00   -0.34998E+00 16994   0.372E+00    0.159E+00
RMM:   4    -0.103247353070E+03    0.13340E+00   -0.40328E-01 16051   0.958E-01    0.967E-01
RMM:   5    -0.103233803873E+03    0.13549E-01   -0.24313E-02 16208   0.299E-01    0.664E-01
RMM:   6    -0.103252505999E+03   -0.18702E-01   -0.17886E-02 14647   0.242E-01    0.641E-01
RMM:   7    -0.103232774260E+03    0.19732E-01   -0.11546E-02 15005   0.193E-01    0.250E-01
RMM:   8    -0.103231664062E+03    0.11102E-02   -0.35522E-03 16361   0.108E-01    0.137E-01
RMM:   9    -0.103231442389E+03    0.22167E-03   -0.71429E-04 15205   0.534E-02    0.933E-02
RMM:  10    -0.103231380077E+03    0.62313E-04   -0.50880E-04 14678   0.406E-02    0.425E-02
RMM:  11    -0.103231724123E+03   -0.34405E-03   -0.45841E-04 14805   0.408E-02    0.192E-02
RMM:  12    -0.103231992865E+03   -0.26874E-03   -0.64883E-05 15683   0.151E-02    0.120E-02
RMM:  13    -0.103232222937E+03   -0.23007E-03   -0.10528E-05 14130   0.104E-02    0.640E-03
RMM:  14    -0.103232442212E+03   -0.21927E-03    0.20247E-05 12942   0.507E-03    0.453E-03
RMM:  15    -0.103232589254E+03   -0.14704E-03    0.81970E-05 12017   0.430E-03    0.258E-03
RMM:  16    -0.103232668337E+03   -0.79083E-04    0.36888E-04 11786   0.288E-03    0.169E-03
RMM:  17    -0.103232641035E+03    0.27302E-04    0.15370E-03 11710   0.209E-03    0.127E-03
RMM:  18    -0.103232112518E+03    0.52852E-03    0.44824E-03 10190   0.675E-04    0.665E-03
RMM:  19    -0.103232742307E+03   -0.62979E-03    0.16981E-02  8360  -0.211E-03    0.136E-03
RMM:  20    -0.103232454755E+03    0.28755E-03    0.20977E-03  9882   0.758E-04    0.366E-03
RMM:  21    -0.103231902324E+03    0.55243E-03    0.11737E-02  7524  -0.113E-03    0.928E-03
RMM:  22    -0.103235023059E+03   -0.31207E-02   -0.13781E-02  8026   0.226E-03    0.233E-02
RMM:  23    -0.103239138043E+03   -0.41150E-02   -0.13555E-01  8865   0.140E-02    0.338E-02
RMM:  24    -0.103231858352E+03    0.72797E-02   -0.22715E-01  9296   0.212E-02    0.141E-02
RMM:  25    -0.103235300004E+03   -0.34417E-02   -0.14720E-02  9028   0.174E-03    0.419E-02
RMM:  26    -0.103250219009E+03   -0.14919E-01   -0.12449E-01  9731   0.182E-02    0.113E-01
RMM:  27    -0.103255492638E+03   -0.52736E-02   -0.84756E-01 10643   0.824E-02    0.178E-01
RMM:  28    -0.103334180321E+03   -0.78688E-01   -0.16617E+00 12119   0.148E-01    0.267E-01
RMM:  29    -0.103339440283E+03   -0.52600E-02   -0.39876E+00 12345   0.292E-01    0.384E-01
RMM:  30    -0.103343571818E+03   -0.41315E-02   -0.48306E+00 13018   0.387E-01    0.365E-01
RMM:  31    -0.103285012226E+03    0.58560E-01   -0.47831E+00 12961   0.377E-01    0.217E-01
RMM:  32    -0.103260290188E+03    0.24722E-01   -0.32267E+00 13028   0.236E-01    0.135E-01
RMM:  33    -0.103261510223E+03   -0.12200E-02   -0.14450E+00 11832   0.122E-01    0.981E-02
RMM:  34    -0.103282067537E+03   -0.20557E-01   -0.86665E-01 10888   0.804E-02    0.220E-01
RMM:  35    -0.103418813291E+03   -0.13675E+00   -0.27216E+00 12055   0.215E-01    0.407E-01
RMM:  36    -0.103324760383E+03    0.94053E-01   -0.50924E+00 12488   0.398E-01    0.267E-01
RMM:  37    -0.103333577087E+03   -0.88167E-02   -0.30744E+00 13069   0.247E-01    0.273E-01
RMM:  38    -0.103326697290E+03    0.68798E-02   -0.32993E+00 12568   0.271E-01    0.241E-01
RMM:  39    -0.103282147552E+03    0.44550E-01   -0.35795E+00 12350   0.260E-01    0.185E-01
RMM:  40    -0.103346841395E+03   -0.64694E-01   -0.35121E+00 12075   0.235E-01    0.227E-01
RMM:  41    -0.103362651088E+03   -0.15810E-01   -0.29704E+00 12250   0.221E-01    0.331E-01
RMM:  42    -0.103423977921E+03   -0.61327E-01   -0.51811E+00 12811   0.365E-01    0.326E-01
RMM:  43    -0.103377297549E+03    0.46680E-01   -0.55335E+00 12493   0.383E-01    0.330E-01
RMM:  44    -0.103346454164E+03    0.30843E-01   -0.59495E+00 12521   0.404E-01    0.348E-01
RMM:  45    -0.103328528092E+03    0.17926E-01   -0.56438E+00 12651   0.402E-01    0.243E-01
RMM:  46    -0.103292411952E+03    0.36116E-01   -0.37889E+00 12546   0.272E-01    0.160E-01
RMM:  47    -0.103242191078E+03    0.50221E-01   -0.26988E+00 11616   0.186E-01    0.649E-02
RMM:  48    -0.103278007689E+03   -0.35817E-01   -0.79527E-01 10716   0.638E-02    0.179E-01
RMM:  49    -0.103331868260E+03   -0.53861E-01   -0.27409E+00 11539   0.198E-01    0.271E-01
RMM:  50    -0.103359268837E+03   -0.27401E-01   -0.36273E+00 12432   0.281E-01    0.319E-01
RMM:  51    -0.103336119412E+03    0.23149E-01   -0.54719E+00 12674   0.385E-01    0.140E-01
RMM:  52    -0.103317506440E+03    0.18613E-01   -0.21020E+00 12530   0.154E-01    0.224E-01
RMM:  53    -0.103338656425E+03   -0.21150E-01   -0.26677E+00 12151   0.215E-01    0.210E-01
RMM:  54    -0.103300428915E+03    0.38228E-01   -0.34768E+00 12384   0.241E-01    0.154E-01
RMM:  55    -0.103325509302E+03   -0.25080E-01   -0.26728E+00 11472   0.181E-01    0.234E-01
RMM:  56    -0.103274840303E+03    0.50669E-01   -0.37687E+00 11199   0.261E-01    0.203E-01
RMM:  57    -0.103311927160E+03   -0.37087E-01   -0.41125E+00 11843   0.268E-01    0.209E-01
RMM:  58    -0.103267505981E+03    0.44421E-01   -0.44628E+00 11978   0.284E-01    0.117E-01
RMM:  59    -0.103256530376E+03    0.10976E-01   -0.18641E+00 11750   0.139E-01    0.974E-02
RMM:  60    -0.103260239006E+03   -0.37086E-02   -0.20787E+00 10854   0.131E-01    0.133E-01
RMM:  61    -0.103301851636E+03   -0.41613E-01   -0.22044E+00 10499   0.158E-01    0.214E-01
RMM:  62    -0.103271162877E+03    0.30689E-01   -0.42421E+00 12655   0.275E-01    0.165E-01
RMM:  63    -0.103301790700E+03   -0.30628E-01   -0.24419E+00 10716   0.180E-01    0.149E-01
RMM:  64    -0.103275738672E+03    0.26052E-01   -0.18990E+00 10453   0.145E-01    0.138E-01
RMM:  65    -0.103266627674E+03    0.91110E-02   -0.29732E+00 12145   0.187E-01    0.133E-01
RMM:  66    -0.103277435191E+03   -0.10808E-01   -0.26832E+00 10975   0.170E-01    0.176E-01
RMM:  67    -0.103279330941E+03   -0.18957E-02   -0.33067E+00 13698   0.221E-01    0.158E-01
RMM:  68    -0.103306230893E+03   -0.26900E-01   -0.23464E+00 11445   0.172E-01    0.183E-01
RMM:  69    -0.103279069721E+03    0.27161E-01   -0.36095E+00 11213   0.238E-01    0.168E-01
RMM:  70    -0.103314277917E+03   -0.35208E-01   -0.29903E+00 12395   0.208E-01    0.235E-01
RMM:  71    -0.103306049394E+03    0.82285E-02   -0.40440E+00 12093   0.281E-01    0.185E-01
RMM:  72    -0.103299102163E+03    0.69472E-02   -0.38983E+00 13568   0.242E-01    0.159E-01
RMM:  73    -0.103237553547E+03    0.61549E-01   -0.32086E+00 13012   0.211E-01    0.662E-02
RMM:  74    -0.103272479562E+03   -0.34926E-01   -0.11183E+00 12978   0.799E-02    0.184E-01
RMM:  75    -0.103378318075E+03   -0.10584E+00   -0.32417E+00 10959   0.220E-01    0.313E-01
RMM:  76    -0.103373902503E+03    0.44156E-02   -0.55777E+00 12191   0.379E-01    0.227E-01
RMM:  77    -0.103297496792E+03    0.76406E-01   -0.45623E+00 13088   0.292E-01    0.270E-01
RMM:  78    -0.103270333696E+03    0.27163E-01   -0.56550E+00 12222   0.355E-01    0.176E-01
RMM:  79    -0.103363401317E+03   -0.93068E-01   -0.22793E+00 12506   0.181E-01    0.302E-01
RMM:  80    -0.103334461300E+03    0.28940E-01   -0.44551E+00 12092   0.325E-01
   3 F= -.10333446E+03 E0= -.10333733E+03  d E =-.207990E+01
       N       E                     dE             d eps       ncg     rms          rms(c)
DAV:   1    -0.103144434688E+03    0.21897E+00   -0.46821E+01 14336   0.851E+00    0.399E-01
RMM:   2    -0.103240432492E+03   -0.95998E-01   -0.10078E+00 14450   0.175E+00    0.172E-01
RMM:   3    -0.103247471200E+03   -0.70387E-02   -0.10499E-01 17720   0.644E-01    0.217E-01
RMM:   4    -0.103246001094E+03    0.14701E-02   -0.17134E-03 15418   0.772E-02    0.134E-01
RMM:   5    -0.103245696462E+03    0.30463E-03   -0.31471E-04 16925   0.314E-02    0.992E-02
RMM:   6    -0.103245895361E+03   -0.19890E-03   -0.27262E-04 14434   0.281E-02    0.707E-02
RMM:   7    -0.103245823350E+03    0.72011E-04   -0.16351E-04 16030   0.200E-02    0.635E-02
RMM:   8    -0.103245619565E+03    0.20379E-03   -0.57856E-05 15578   0.114E-02    0.163E-02
RMM:   9    -0.103245610912E+03    0.86528E-05   -0.11398E-05 15084   0.716E-03    0.101E-02
RMM:  10    -0.103245613351E+03   -0.24396E-05   -0.16454E-05 14370   0.696E-03    0.391E-03
RMM:  11    -0.103245616945E+03   -0.35934E-05   -0.43727E-07 12871   0.341E-03    0.310E-03
RMM:  12    -0.103245620815E+03   -0.38700E-05    0.32849E-06 10234   0.158E-03    0.154E-03
RMM:  13    -0.103245624710E+03   -0.38950E-05    0.57492E-06 10084   0.111E-03    0.928E-04
RMM:  14    -0.103245627507E+03   -0.27977E-05    0.95811E-06  9737   0.699E-04    0.613E-04
RMM:  15    -0.103245629315E+03   -0.18077E-05    0.15404E-05  8321   0.474E-04    0.333E-04
RMM:  16    -0.103245629899E+03   -0.58360E-06    0.24781E-05  7570   0.394E-04    0.235E-04
RMM:  17    -0.103245629147E+03    0.75155E-06    0.40390E-05  7039   0.342E-04    0.143E-04
RMM:  18    -0.103245627339E+03    0.18082E-05    0.66957E-05  7444   0.352E-04    0.832E-05
RMM:  19    -0.103245623757E+03    0.35816E-05    0.11503E-04  6629   0.292E-04    0.595E-05
RMM:  20    -0.103245617069E+03    0.66879E-05    0.20745E-04  6483   0.277E-04    0.102E-04
RMM:  21    -0.103245610731E+03    0.63380E-05    0.31964E-04  6449   0.260E-04    0.202E-04
RMM:  22    -0.103245611252E+03   -0.52024E-06    0.52210E-04  6421   0.242E-04    0.210E-04
RMM:  23    -0.103245361114E+03    0.25014E-03    0.67871E-04  6421   0.244E-04    0.291E-03
RMM:  24    -0.103245582614E+03   -0.22150E-03    0.88672E-03  6454  -0.807E-04    0.554E-04
RMM:  25    -0.103245351574E+03    0.23104E-03    0.24001E-03  6413   0.130E-04    0.296E-03
RMM:  26    -0.103245164471E+03    0.18710E-03    0.10415E-02  6417  -0.106E-03    0.382E-03
RMM:  27    -0.103245139712E+03    0.24759E-04    0.16615E-02  6161  -0.164E-03    0.440E-03
RMM:  28    -0.103248347136E+03   -0.32074E-02    0.20801E-02  6117  -0.199E-03    0.169E-02
RMM:  29    -0.103243554190E+03    0.47929E-02   -0.18175E-01  8424   0.131E-02    0.141E-02
RMM:  30    -0.103257885417E+03   -0.14331E-01    0.10302E-01  7734  -0.975E-03    0.803E-02
RMM:  31    -0.103380574015E+03   -0.12269E+00   -0.13326E+00 10261   0.896E-02    0.230E-01
RMM:  32    -0.103405505282E+03   -0.24931E-01   -0.44744E+00 12541   0.280E-01    0.285E-01
RMM:  33    -0.103342911732E+03    0.62594E-01   -0.58925E+00 13166   0.373E-01    0.333E-01
RMM:  34    -0.103452809015E+03   -0.10990E+00   -0.58416E+00 12593   0.396E-01    0.424E-01
RMM:  35    -0.103482788568E+03   -0.29980E-01   -0.71527E+00 13351   0.516E-01    0.474E-01
RMM:  36    -0.103472873838E+03    0.99147E-02   -0.88244E+00 13376   0.602E-01    0.538E-01
RMM:  37    -0.103448079026E+03    0.24795E-01   -0.90091E+00 13984   0.663E-01    0.336E-01
RMM:  38    -0.103371414421E+03    0.76665E-01   -0.54396E+00 12560   0.397E-01    0.332E-01
RMM:  39    -0.103315916095E+03    0.55498E-01   -0.56283E+00 13096   0.403E-01    0.227E-01
RMM:  40    -0.103278094124E+03    0.37822E-01   -0.36377E+00 12407   0.267E-01    0.187E-01
RMM:  41    -0.103297711406E+03   -0.19617E-01   -0.30166E+00 12708   0.220E-01    0.186E-01
RMM:  42    -0.103364326819E+03   -0.66615E-01   -0.26396E+00 10603   0.202E-01    0.250E-01
RMM:  43    -0.103294271228E+03    0.70056E-01   -0.42970E+00 12150   0.303E-01    0.155E-01
RMM:  44    -0.103343183744E+03   -0.48913E-01   -0.25178E+00 11699   0.178E-01    0.175E-01
RMM:  45    -0.103412594562E+03   -0.69411E-01   -0.25632E+00 11479   0.197E-01    0.229E-01
RMM:  46    -0.103305478167E+03    0.10712E+00   -0.45839E+00 12461   0.296E-01    0.189E-01
RMM:  47    -0.103251126138E+03    0.54352E-01   -0.38754E+00 11235   0.248E-01    0.885E-02
RMM:  48    -0.103327866352E+03   -0.76740E-01   -0.16283E+00 11037   0.111E-01    0.196E-01
RMM:  49    -0.103302889542E+03    0.24977E-01   -0.29542E+00 11068   0.216E-01    0.230E-01
RMM:  50    -0.103387055186E+03   -0.84166E-01   -0.42308E+00 12530   0.294E-01    0.282E-01
RMM:  51    -0.103332056543E+03    0.54999E-01   -0.55251E+00 12175   0.372E-01    0.230E-01
RMM:  52    -0.103385896990E+03   -0.53840E-01   -0.37673E+00 11334   0.270E-01    0.285E-01
RMM:  53    -0.103368668050E+03    0.17229E-01   -0.54964E+00 12315   0.363E-01    0.194E-01
RMM:  54    -0.103264007753E+03    0.10466E+00   -0.32322E+00 12483   0.228E-01    0.117E-01
RMM:  55    -0.103261696112E+03    0.23116E-02   -0.23617E+00 11598   0.151E-01    0.438E-02
RMM:  56    -0.103297748569E+03   -0.36052E-01   -0.83247E-01 10770   0.530E-02    0.164E-01
RMM:  57    -0.103291503617E+03    0.62450E-02   -0.33703E+00 10344   0.219E-01    0.215E-01
RMM:  58    -0.103297223291E+03   -0.57197E-02   -0.33455E+00 11152   0.233E-01    0.217E-01
RMM:  59    -0.103326030908E+03   -0.28808E-01   -0.41758E+00 12623   0.272E-01    0.313E-01
RMM:  60    -0.103335642913E+03   -0.96120E-02   -0.61057E+00 12412   0.398E-01    0.194E-01
RMM:  61    -0.103340595482E+03   -0.49526E-02   -0.32647E+00 12618   0.234E-01    0.217E-01
RMM:  62    -0.103297173784E+03    0.43422E-01   -0.40875E+00 11780   0.273E-01    0.176E-01
RMM:  63    -0.103291659641E+03    0.55141E-02   -0.32587E+00 11292   0.222E-01    0.179E-01
RMM:  64    -0.103337712450E+03   -0.46053E-01   -0.33735E+00 11874   0.221E-01    0.231E-01
RMM:  65    -0.103325294720E+03    0.12418E-01   -0.44466E+00 12137   0.293E-01    0.294E-01
RMM:  66    -0.103339206278E+03   -0.13912E-01   -0.47276E+00 12287   0.347E-01    0.268E-01
RMM:  67    -0.103287076670E+03    0.52130E-01   -0.59483E+00 12821   0.371E-01    0.163E-01
RMM:  68    -0.103272887260E+03    0.14189E-01   -0.37897E+00 11731   0.232E-01    0.111E-01
RMM:  69    -0.103263670853E+03    0.92164E-02   -0.22899E+00 11067   0.150E-01    0.116E-01
RMM:  70    -0.103301059571E+03   -0.37389E-01   -0.21689E+00 10567   0.147E-01    0.197E-01
RMM:  71    -0.103344569537E+03   -0.43510E-01   -0.41625E+00 11878   0.268E-01    0.253E-01
RMM:  72    -0.103357142362E+03   -0.12573E-01   -0.50135E+00 13636   0.328E-01    0.268E-01
RMM:  73    -0.103332246220E+03    0.24896E-01   -0.54464E+00 11950   0.359E-01    0.251E-01
RMM:  74    -0.103395465748E+03   -0.63220E-01   -0.38663E+00 12459   0.283E-01    0.232E-01
RMM:  75    -0.103386007467E+03    0.94583E-02   -0.44674E+00 13006   0.297E-01    0.293E-01
RMM:  76    -0.103287796826E+03    0.98211E-01   -0.59230E+00 11735   0.385E-01    0.214E-01
RMM:  77    -0.103332377608E+03   -0.44581E-01   -0.38219E+00 13228   0.261E-01    0.253E-01
RMM:  78    -0.103317040083E+03    0.15338E-01   -0.43042E+00 11105   0.299E-01    0.197E-01
RMM:  79    -0.103364871721E+03   -0.47832E-01   -0.37747E+00 12778   0.253E-01    0.241E-01
RMM:  80    -0.103324629802E+03    0.40242E-01   -0.42801E+00 11914   0.292E-01
   4 F= -.10332463E+03 E0= -.10332796E+03  d E =-.207007E+01
       N       E                     dE             d eps       ncg     rms          rms(c)
DAV:   1    -0.103023235372E+03    0.34164E+00   -0.23362E+02 14336   0.201E+01    0.994E-01
RMM:   2    -0.103616101260E+03   -0.59287E+00   -0.60940E+00 14396   0.423E+00    0.493E-01
RMM:   3    -0.103667590096E+03   -0.51489E-01   -0.61982E-01 17667   0.151E+00    0.607E-01
RMM:   4    -0.103650360277E+03    0.17230E-01   -0.10944E-02 15126   0.198E-01    0.313E-01
RMM:   5    -0.103648634516E+03    0.17258E-02   -0.21934E-03 16778   0.893E-02    0.224E-01
RMM:   6    -0.103650172088E+03   -0.15376E-02   -0.32139E-03 14496   0.109E-01    0.166E-01
RMM:   7    -0.103648628160E+03    0.15439E-02   -0.10039E-03 16589   0.582E-02    0.619E-02
RMM:   8    -0.103648510839E+03    0.11732E-03   -0.16550E-04 15426   0.193E-02    0.405E-02
RMM:   9    -0.103648487705E+03    0.23133E-04   -0.45160E-05 14528   0.125E-02    0.268E-02
RMM:  10    -0.103648496515E+03   -0.88092E-05   -0.89683E-05 14933   0.190E-02    0.805E-03
RMM:  11    -0.103648523641E+03   -0.27126E-04   -0.10324E-05 15409   0.721E-03    0.549E-03
RMM:  12    -0.103648544852E+03   -0.21211E-04    0.91300E-06 11715   0.280E-03    0.320E-03
RMM:  13    -0.103648570239E+03   -0.25387E-04    0.15305E-05 11484   0.246E-03    0.168E-03
RMM:  14    -0.103648585248E+03   -0.15009E-04    0.27795E-05 10793   0.161E-03    0.103E-03
RMM:  15    -0.103648593202E+03   -0.79540E-05    0.46854E-05 10372   0.986E-04    0.540E-04
RMM:  16    -0.103648594193E+03   -0.99159E-06    0.80063E-05  9574   0.662E-04    0.403E-04
RMM:  17    -0.103648591182E+03    0.30111E-05    0.14236E-04  8706   0.484E-04    0.216E-04
RMM:  18    -0.103648582793E+03    0.83891E-05    0.27174E-04  7603   0.408E-04    0.157E-04
RMM:  19    -0.103648561899E+03    0.20894E-04    0.58036E-04  7296   0.381E-04    0.251E-04
RMM:  20    -0.103648555038E+03    0.68602E-05    0.80863E-04  6852   0.319E-04    0.372E-04
RMM:  21    -0.103648489392E+03    0.65647E-04    0.13964E-03  6830   0.288E-04    0.142E-03
RMM:  22    -0.103648476384E+03    0.13008E-04    0.31421E-03  6830  -0.624E-05    0.164E-03
RMM:  23    -0.103648565393E+03   -0.89008E-04    0.38383E-03  6757  -0.147E-04    0.512E-04
RMM:  24    -0.103648492758E+03    0.72634E-04    0.18607E-03  6713   0.263E-04    0.152E-03
RMM:  25    -0.103648477294E+03    0.15465E-04    0.43367E-03  6738  -0.844E-05    0.208E-03
RMM:  26    -0.103647374109E+03    0.11032E-02    0.47650E-03  6723  -0.568E-05    0.809E-03
RMM:  27    -0.103649934789E+03   -0.25607E-02    0.37883E-02  7224  -0.325E-03    0.138E-02
RMM:  28    -0.103662463968E+03   -0.12529E-01    0.84751E-03  8890   0.356E-03    0.372E-02
RMM:  29    -0.103649719412E+03    0.12745E-01   -0.32217E-01  9694   0.313E-02    0.462E-02
RMM:  30    -0.103660707970E+03   -0.10989E-01   -0.35514E-01  9847   0.335E-02    0.930E-02
RMM:  31    -0.103685848583E+03   -0.25141E-01   -0.11430E+00 10204   0.896E-02    0.199E-01
RMM:  32    -0.103717800010E+03   -0.31951E-01   -0.18028E+00 11883   0.138E-01    0.243E-01
RMM:  33    -0.103737548364E+03   -0.19748E-01   -0.39794E+00 12383   0.259E-01    0.253E-01
RMM:  34    -0.103722858080E+03    0.14690E-01   -0.43433E+00 12677   0.289E-01    0.292E-01
RMM:  35    -0.103754413839E+03   -0.31556E-01   -0.36489E+00 12786   0.291E-01    0.277E-01
RMM:  36    -0.103715168623E+03    0.39245E-01   -0.30505E+00 12449   0.245E-01    0.184E-01
RMM:  37    -0.103807560312E+03   -0.92392E-01   -0.24521E+00 12646   0.190E-01    0.303E-01
RMM:  38    -0.103708749310E+03    0.98811E-01   -0.45891E+00 12533   0.331E-01    0.243E-01
RMM:  39    -0.103729766424E+03   -0.21017E-01   -0.39401E+00 12531   0.276E-01    0.223E-01
RMM:  40    -0.103685369524E+03    0.44397E-01   -0.27702E+00 12380   0.213E-01    0.178E-01
RMM:  41    -0.103688045607E+03   -0.26761E-02   -0.25037E+00 12411   0.183E-01    0.145E-01
RMM:  42    -0.103737542297E+03   -0.49497E-01   -0.20831E+00 11916   0.153E-01    0.287E-01
RMM:  43    -0.103770474147E+03   -0.32932E-01   -0.33346E+00 11728   0.274E-01    0.253E-01
RMM:  44    -0.103685416025E+03    0.85058E-01   -0.27067E+00 12804   0.208E-01    0.151E-01
RMM:  45    -0.103805250542E+03   -0.11983E+00   -0.19852E+00 12302   0.153E-01    0.268E-01
RMM:  46    -0.103716159158E+03    0.89091E-01   -0.29870E+00 12676   0.241E-01    0.182E-01
RMM:  47    -0.103659960679E+03    0.56198E-01   -0.37897E+00 12451   0.239E-01    0.842E-02
RMM:  48    -0.103743811528E+03   -0.83851E-01   -0.16077E+00 10982   0.110E-01    0.240E-01
RMM:  49    -0.103812142024E+03   -0.68330E-01   -0.36120E+00 11296   0.265E-01    0.301E-01
RMM:  50    -0.103713202607E+03    0.98939E-01   -0.56351E+00 12417   0.365E-01    0.172E-01
RMM:  51    -0.103763065192E+03   -0.49863E-01   -0.28220E+00 12680   0.196E-01    0.238E-01
RMM:  52    -0.103841057769E+03   -0.77993E-01   -0.22695E+00 10837   0.202E-01    0.338E-01
RMM:  53    -0.103690782054E+03    0.15028E+00   -0.60224E+00 12295   0.405E-01    0.837E-02
RMM:  54    -0.103653830361E+03    0.36952E-01   -0.12632E+00 11824   0.877E-02    0.100E-01
RMM:  55    -0.103738217506E+03   -0.84387E-01   -0.15995E+00 10646   0.110E-01    0.310E-01
RMM:  56    -0.103699340113E+03    0.38877E-01   -0.46136E+00 11509   0.316E-01    0.210E-01
RMM:  57    -0.103784238265E+03   -0.84898E-01   -0.32443E+00 11490   0.228E-01    0.261E-01
RMM:  58    -0.103737922077E+03    0.46316E-01   -0.45926E+00 12273   0.306E-01    0.266E-01
RMM:  59    -0.103795539295E+03   -0.57617E-01   -0.42729E+00 12090   0.298E-01    0.385E-01
RMM:  60    -0.103759851525E+03    0.35688E-01   -0.61512E+00 12352   0.427E-01    0.205E-01
RMM:  61    -0.103716418726E+03    0.43433E-01   -0.32274E+00 12524   0.231E-01    0.150E-01
RMM:  62    -0.103732551451E+03   -0.16133E-01   -0.22415E+00 11310   0.163E-01    0.157E-01
RMM:  63    -0.103720301801E+03    0.12250E-01   -0.32073E+00 10992   0.200E-01    0.232E-01
RMM:  64    -0.103718100393E+03    0.22014E-02   -0.42072E+00 11563   0.279E-01    0.248E-01
RMM:  65    -0.103656803190E+03    0.61297E-01   -0.44940E+00 11473   0.298E-01    0.956E-02
RMM:  66    -0.103726380747E+03   -0.69578E-01   -0.16516E+00 11647   0.113E-01    0.202E-01
RMM:  67    -0.103806693687E+03   -0.80313E-01   -0.31792E+00 11244   0.216E-01    0.302E-01
RMM:  68    -0.103767327548E+03    0.39366E-01   -0.39527E+00 12351   0.308E-01    0.324E-01
RMM:  69    -0.103730343609E+03    0.36984E-01   -0.60190E+00 12473   0.396E-01    0.181E-01
RMM:  70    -0.103696739376E+03    0.33604E-01   -0.31081E+00 11895   0.207E-01    0.113E-01
RMM:  71    -0.103680324295E+03    0.16415E-01   -0.21885E+00 11561   0.143E-01    0.137E-01
RMM:  72    -0.103689811968E+03   -0.94877E-02   -0.19174E+00 13948   0.141E-01    0.152E-01
RMM:  73    -0.103724122381E+03   -0.34310E-01   -0.30538E+00 11878   0.196E-01    0.108E-01
RMM:  74    -0.103765647925E+03   -0.41526E-01   -0.11640E+00 12934   0.987E-02    0.278E-01
RMM:  75    -0.103765422874E+03    0.22505E-03   -0.48418E+00 11490   0.329E-01    0.349E-01
RMM:  76    -0.103870448026E+03   -0.10503E+00   -0.62786E+00 12776   0.422E-01    0.474E-01
RMM:  77    -0.103851900496E+03    0.18548E-01   -0.82186E+00 12763   0.566E-01    0.369E-01
RMM:  78    -0.103751061327E+03    0.10084E+00   -0.70982E+00 12968   0.460E-01    0.305E-01
RMM:  79    -0.103717569136E+03    0.33492E-01   -0.52980E+00 11609   0.366E-01    0.211E-01
RMM:  80    -0.103653740914E+03    0.63828E-01   -0.31377E+00 11276   0.220E-01
   5 F= -.10365374E+03 E0= -.10366237E+03  d E =-.329111E+00
       N       E                     dE             d eps       ncg     rms          rms(c)
DAV:   1    -0.103374725967E+03    0.34284E+00   -0.13188E+02 14336   0.147E+01    0.753E-01
RMM:   2    -0.103707922813E+03   -0.33320E+00   -0.33247E+00 14401   0.318E+00    0.513E-01
RMM:   3    -0.103727787797E+03   -0.19865E-01   -0.35045E-01 17668   0.116E+00    0.498E-01
RMM:   4    -0.103712791822E+03    0.14996E-01   -0.72249E-03 14847   0.162E-01    0.223E-01
RMM:   5    -0.103712679757E+03    0.11207E-03   -0.13565E-03 16934   0.707E-02    0.173E-01
RMM:   6    -0.103713102258E+03   -0.42250E-03   -0.63532E-04 14573   0.425E-02    0.148E-01
RMM:   7    -0.103712238714E+03    0.86354E-03   -0.99098E-04 14675   0.587E-02    0.355E-02
RMM:   8    -0.103712207200E+03    0.31514E-04   -0.14735E-04 16307   0.230E-02    0.217E-02
RMM:   9    -0.103712208074E+03   -0.87318E-06   -0.41394E-05 14620   0.120E-02    0.102E-02
RMM:  10    -0.103712226085E+03   -0.18011E-04   -0.11499E-05 14970   0.742E-03    0.532E-03
RMM:  11    -0.103712245986E+03   -0.19901E-04    0.22210E-06 12668   0.315E-03    0.362E-03
RMM:  12    -0.103712263749E+03   -0.17763E-04    0.76036E-06 10685   0.182E-03    0.214E-03
RMM:  13    -0.103712283924E+03   -0.20175E-04    0.12564E-05 10739   0.145E-03    0.121E-03
RMM:  14    -0.103712297295E+03   -0.13370E-04    0.21421E-05 10268   0.910E-04    0.873E-04
RMM:  15    -0.103712304475E+03   -0.71805E-05    0.35571E-05  9494   0.694E-04    0.431E-04
RMM:  16    -0.103712305315E+03   -0.83951E-06    0.60100E-05  8387   0.474E-04    0.272E-04
RMM:  17    -0.103712303148E+03    0.21663E-05    0.10427E-04  7694   0.391E-04    0.134E-04
RMM:  18    -0.103712297009E+03    0.61393E-05    0.19214E-04  7142   0.339E-04    0.109E-04
RMM:  19    -0.103712285201E+03    0.11808E-04    0.36579E-04  6896   0.326E-04    0.143E-04
RMM:  20    -0.103712254553E+03    0.30648E-04    0.80805E-04  6665   0.296E-04    0.547E-04
RMM:  21    -0.103712236755E+03    0.17798E-04    0.13302E-03  6877   0.218E-04    0.698E-04
RMM:  22    -0.103712289001E+03   -0.52246E-04    0.97804E-04  6683   0.151E-04    0.179E-04
RMM:  23    -0.103712157483E+03    0.13152E-03    0.17088E-03  6631   0.306E-04    0.212E-03
RMM:  24    -0.103712216893E+03   -0.59410E-04    0.50435E-03  6671  -0.329E-04    0.127E-03
RMM:  25    -0.103711817734E+03    0.39916E-03    0.40940E-03  6608  -0.700E-05    0.557E-03
RMM:  26    -0.103711495703E+03    0.32203E-03    0.20927E-02  6664  -0.215E-03    0.440E-03
RMM:  27    -0.103724697940E+03   -0.13202E-01   -0.51817E-03  6677   0.192E-04    0.435E-02
RMM:  28    -0.103724492943E+03    0.20500E-03   -0.10098E-01  9636   0.154E-02    0.724E-02
RMM:  29    -0.103741114546E+03   -0.16622E-01   -0.58688E-01  9892   0.563E-02    0.132E-01
RMM:  30    -0.103719188996E+03    0.21926E-01   -0.14810E+00 11268   0.122E-01    0.455E-02
RMM:  31    -0.103742640005E+03   -0.23451E-01   -0.77812E-01 10989   0.551E-02    0.140E-01
RMM:  32    -0.103780804687E+03   -0.38165E-01   -0.19381E+00 11000   0.147E-01    0.265E-01
RMM:  33    -0.103771470275E+03    0.93344E-02   -0.39540E+00 12534   0.288E-01    0.271E-01
RMM:  34    -0.103793091788E+03   -0.21622E-01   -0.38316E+00 12756   0.284E-01    0.178E-01
RMM:  35    -0.103778465230E+03    0.14627E-01   -0.19509E+00 12608   0.153E-01    0.213E-01
RMM:  36    -0.103810575235E+03   -0.32110E-01   -0.31812E+00 11596   0.226E-01    0.275E-01
RMM:  37    -0.103769902953E+03    0.40672E-01   -0.46915E+00 12487   0.314E-01    0.201E-01
RMM:  38    -0.103733762622E+03    0.36140E-01   -0.28109E+00 12555   0.211E-01    0.129E-01
RMM:  39    -0.103803171172E+03   -0.69409E-01   -0.21552E+00 11289   0.147E-01    0.170E-01
RMM:  40    -0.103783157007E+03    0.20014E-01   -0.25931E+00 11454   0.184E-01    0.249E-01
RMM:  41    -0.103723268928E+03    0.59888E-01   -0.39150E+00 12547   0.286E-01    0.509E-02
RMM:  42    -0.103774218151E+03   -0.50949E-01   -0.53663E-01 11967   0.491E-02    0.234E-01
RMM:  43    -0.103786933701E+03   -0.12716E-01   -0.25662E+00 11101   0.214E-01    0.283E-01
RMM:  44    -0.103793324955E+03   -0.63913E-02   -0.36891E+00 11980   0.289E-01    0.213E-01
RMM:  45    -0.103741844284E+03    0.51481E-01   -0.37656E+00 12044   0.247E-01    0.220E-01
RMM:  46    -0.103815329660E+03   -0.73485E-01   -0.33429E+00 11753   0.240E-01    0.294E-01
RMM:  47    -0.103817543145E+03   -0.22135E-02   -0.51380E+00 11022   0.352E-01    0.230E-01
RMM:  48    -0.103765110892E+03    0.52432E-01   -0.42192E+00 11571   0.281E-01    0.177E-01
RMM:  49    -0.103795678516E+03   -0.30568E-01   -0.31899E+00 11538   0.216E-01    0.230E-01
RMM:  50    -0.103820157454E+03   -0.24479E-01   -0.39562E+00 12141   0.277E-01    0.248E-01
RMM:  51    -0.103767370785E+03    0.52787E-01   -0.29653E+00 12257   0.235E-01    0.123E-01
RMM:  52    -0.103791165228E+03   -0.23794E-01   -0.16368E+00 11955   0.123E-01    0.138E-01
RMM:  53    -0.103739465334E+03    0.51700E-01   -0.28508E+00 10652   0.179E-01    0.660E-02
RMM:  54    -0.103725845541E+03    0.13620E-01   -0.11218E+00 10739   0.766E-02    0.855E-02
RMM:  55    -0.103716076431E+03    0.97691E-02   -0.10479E+00 10436   0.856E-02    0.105E-01
RMM:  56    -0.103788805040E+03   -0.72729E-01   -0.12646E+00 10415   0.998E-02    0.276E-01
RMM:  57    -0.103837739036E+03   -0.48934E-01   -0.37654E+00 12282   0.291E-01    0.357E-01
RMM:  58    -0.103783106971E+03    0.54632E-01   -0.58805E+00 12836   0.396E-01    0.222E-01
RMM:  59    -0.103790014211E+03   -0.69072E-02   -0.36284E+00 12334   0.253E-01    0.261E-01
RMM:  60    -0.103757816022E+03    0.32198E-01   -0.44241E+00 11488   0.301E-01    0.174E-01
RMM:  61    -0.103719023594E+03    0.38792E-01   -0.28602E+00 11926   0.199E-01    0.666E-02
RMM:  62    -0.103745040059E+03   -0.26016E-01   -0.11369E+00 11445   0.753E-02    0.152E-01
RMM:  63    -0.103746906615E+03   -0.18666E-02   -0.24717E+00 10762   0.178E-01    0.149E-01
RMM:  64    -0.103757354068E+03   -0.10447E-01   -0.28836E+00 10697   0.191E-01    0.225E-01
RMM:  65    -0.103766214812E+03   -0.88607E-02   -0.28834E+00 11848   0.228E-01    0.175E-01
RMM:  66    -0.103765577161E+03    0.63765E-03   -0.27347E+00 11632   0.191E-01    0.141E-01
RMM:  67    -0.103756381670E+03    0.91955E-02   -0.24899E+00 11527   0.170E-01    0.105E-01
RMM:  68    -0.103755181605E+03    0.12001E-02   -0.21443E+00 10538   0.136E-01    0.204E-01
RMM:  69    -0.103741809569E+03    0.13372E-01   -0.32941E+00 11412   0.231E-01    0.825E-02
RMM:  70    -0.103725783663E+03    0.16026E-01   -0.16606E+00 11792   0.101E-01    0.957E-02
RMM:  71    -0.103744880032E+03   -0.19096E-01   -0.15913E+00 10572   0.106E-01    0.169E-01
RMM:  72    -0.103727804132E+03    0.17076E-01   -0.31756E+00 13132   0.213E-01    0.161E-01
RMM:  73    -0.103734441706E+03   -0.66376E-02   -0.30791E+00 10823   0.197E-01    0.713E-02
RMM:  74    -0.103749953822E+03   -0.15512E-01   -0.97319E-01 12657   0.709E-02    0.191E-01
RMM:  75    -0.103756846773E+03   -0.68930E-02   -0.29134E+00 10591   0.211E-01    0.991E-02
RMM:  76    -0.103750457781E+03    0.63890E-02   -0.20227E+00 12001   0.126E-01    0.202E-01
RMM:  77    -0.103755730625E+03   -0.52728E-02   -0.32412E+00 11667   0.218E-01    0.201E-01
RMM:  78    -0.103785627077E+03   -0.29896E-01   -0.28772E+00 10957   0.216E-01    0.274E-01
RMM:  79    -0.103748143937E+03    0.37483E-01   -0.55242E+00 12122   0.352E-01    0.879E-02
RMM:  80    -0.103824230512E+03   -0.76087E-01   -0.90509E-01 12014   0.750E-02
   6 F= -.10382423E+03 E0= -.10382231E+03  d E =-.499601E+00
       N       E                     dE             d eps       ncg     rms          rms(c)
DAV:   1    -0.103698360898E+03    0.49783E-01   -0.12355E+01 14336   0.409E+00    0.189E-01
RMM:   2    -0.103719505878E+03   -0.21145E-01   -0.20792E-01 14545   0.804E-01    0.140E-01
RMM:   3    -0.103719824751E+03   -0.31887E-03   -0.21005E-02 17605   0.290E-01    0.126E-01
RMM:   4    -0.103719039810E+03    0.78494E-03   -0.46477E-04 14981   0.400E-02    0.542E-02
RMM:   5    -0.103719084271E+03   -0.44460E-04   -0.80425E-05 16580   0.157E-02    0.490E-02
RMM:   6    -0.103719025325E+03    0.58946E-04   -0.38532E-05 14544   0.923E-03    0.301E-02
RMM:   7    -0.103719004647E+03    0.20678E-04   -0.42079E-05 14923   0.940E-03    0.905E-03
RMM:   8    -0.103719000951E+03    0.36955E-05   -0.42488E-06 14072   0.452E-03    0.449E-03
RMM:   9    -0.103719000786E+03    0.16513E-06   -0.48338E-07 10396   0.208E-03
   7 F= -.10371900E+03 E0= -.10372301E+03  d E =-.394371E+00
       N       E                     dE             d eps       ncg     rms          rms(c)
DAV:   1    -0.103748729718E+03   -0.29729E-01   -0.43780E+01 14592   0.807E+00    0.434E-01
RMM:   2    -0.103860400639E+03   -0.11167E+00   -0.10627E+00 14408   0.173E+00    0.401E-01
RMM:   3    -0.103853258269E+03    0.71424E-02   -0.10664E-01 17524   0.656E-01    0.278E-01
RMM:   4    -0.103850052071E+03    0.32062E-02   -0.25560E-03 14943   0.933E-02    0.139E-01
RMM:   5    -0.103850138886E+03   -0.86815E-04   -0.54605E-04 16270   0.401E-02    0.114E-01
RMM:   6    -0.103850165248E+03   -0.26361E-04   -0.35190E-04 14904   0.296E-02    0.919E-02
RMM:   7    -0.103849749090E+03    0.41616E-03   -0.32673E-04 14853   0.284E-02    0.176E-02
RMM:   8    -0.103849744342E+03    0.47480E-05   -0.40152E-05 16352   0.124E-02    0.133E-02
RMM:   9    -0.103849741858E+03    0.24844E-05   -0.87684E-06 13794   0.499E-03    0.704E-03
RMM:  10    -0.103849747446E+03   -0.55879E-05   -0.38474E-06 13204   0.376E-03    0.344E-03
RMM:  11    -0.103849753212E+03   -0.57666E-05    0.18837E-06 10706   0.197E-03    0.200E-03
RMM:  12    -0.103849759237E+03   -0.60248E-05    0.39810E-06 10295   0.138E-03    0.105E-03
RMM:  13    -0.103849766184E+03   -0.69467E-05    0.66626E-06 10270   0.105E-03    0.625E-04
RMM:  14    -0.103849771144E+03   -0.49605E-05    0.10975E-05  9706   0.790E-04    0.417E-04
RMM:  15    -0.103849773102E+03   -0.19578E-05    0.18042E-05  8216   0.613E-04    0.218E-04
RMM:  16    -0.103849772937E+03    0.16518E-06    0.29852E-05  7646   0.546E-04    0.141E-04
RMM:  17    -0.103849771621E+03    0.13154E-05    0.50458E-05  7360   0.509E-04    0.868E-05
RMM:  18    -0.103849768797E+03    0.28242E-05    0.89025E-05  7112   0.463E-04    0.601E-05
RMM:  19    -0.103849763026E+03    0.57715E-05    0.16806E-04  6821   0.414E-04    0.892E-05
RMM:  20    -0.103849749827E+03    0.13198E-04    0.35282E-04  6666   0.362E-04    0.256E-04
RMM:  21    -0.103849735634E+03    0.14193E-04    0.60241E-04  6667   0.299E-04    0.438E-04
RMM:  22    -0.103849715238E+03    0.20396E-04    0.98932E-04  6537   0.240E-04    0.700E-04
RMM:  23    -0.103849759952E+03   -0.44714E-04    0.81552E-04  6512   0.159E-04    0.168E-04
RMM:  24    -0.103849729670E+03    0.30282E-04    0.59870E-04  6476   0.299E-04    0.789E-04
RMM:  25    -0.103849637323E+03    0.92347E-04    0.17114E-03  6456   0.156E-04    0.211E-03
RMM:  26    -0.103849552723E+03    0.84600E-04    0.46050E-03  6397  -0.330E-04    0.312E-03
RMM:  27    -0.103849751940E+03   -0.19922E-03    0.76493E-03  6330  -0.768E-04    0.281E-04
RMM:  28    -0.103849402201E+03    0.34974E-03    0.21517E-03  6202   0.216E-04    0.491E-03
RMM:  29    -0.103849379546E+03    0.22655E-04    0.16958E-02  6283  -0.178E-03    0.794E-03
RMM:  30    -0.103849364391E+03    0.15155E-04   -0.17241E-02  7580   0.225E-03    0.560E-03
RMM:  31    -0.103854039396E+03   -0.46750E-02    0.28352E-03  6884   0.113E-03    0.214E-02
RMM:  32    -0.103854860846E+03   -0.82145E-03   -0.31092E-03  9194   0.281E-03    0.602E-02
RMM:  33    -0.103875848054E+03   -0.20987E-01   -0.37823E-01  9825   0.391E-02    0.136E-01
RMM:  34    -0.103896634556E+03   -0.20787E-01   -0.64155E-01 11147   0.608E-02    0.177E-01
RMM:  35    -0.103899151438E+03   -0.25169E-02   -0.14381E+00 11913   0.122E-01    0.182E-01
RMM:  36    -0.103921026015E+03   -0.21875E-01   -0.20197E+00 11308   0.151E-01    0.225E-01
RMM:  37    -0.104004341209E+03   -0.83315E-01   -0.24070E+00 12732   0.179E-01    0.410E-01
RMM:  38    -0.103997063455E+03    0.72778E-02   -0.55043E+00 13082   0.385E-01    0.370E-01
RMM:  39    -0.103955745119E+03    0.41318E-01   -0.46173E+00 13030   0.347E-01    0.237E-01
RMM:  40    -0.103913032536E+03    0.42713E-01   -0.38035E+00 12325   0.260E-01    0.260E-01
RMM:  41    -0.103980977247E+03   -0.67945E-01   -0.28337E+00 12588   0.238E-01    0.289E-01
RMM:  42    -0.103914796776E+03    0.66180E-01   -0.41805E+00 12332   0.311E-01    0.128E-01
RMM:  43    -0.103905745635E+03    0.90511E-02   -0.18676E+00 12797   0.140E-01    0.166E-01
RMM:  44    -0.103918645666E+03   -0.12900E-01   -0.25178E+00 10845   0.180E-01    0.152E-01
RMM:  45    -0.103887737700E+03    0.30908E-01   -0.26686E+00 10940   0.185E-01    0.135E-01
RMM:  46    -0.103904884537E+03   -0.17147E-01   -0.17745E+00 10995   0.136E-01    0.122E-01
RMM:  47    -0.103964939100E+03   -0.60055E-01   -0.11598E+00 11484   0.104E-01    0.270E-01
RMM:  48    -0.103922378393E+03    0.42561E-01   -0.39819E+00 12612   0.292E-01    0.242E-01
RMM:  49    -0.103897798327E+03    0.24580E-01   -0.36381E+00 12444   0.253E-01    0.202E-01
RMM:  50    -0.103929397930E+03   -0.31600E-01   -0.32998E+00 11243   0.224E-01    0.284E-01
RMM:  51    -0.103989941563E+03   -0.60544E-01   -0.45338E+00 10653   0.311E-01    0.373E-01
RMM:  52    -0.104000341492E+03   -0.10400E-01   -0.58494E+00 12598   0.422E-01    0.333E-01
RMM:  53    -0.103922317412E+03    0.78024E-01   -0.48945E+00 12621   0.347E-01    0.330E-01
RMM:  54    -0.103911689870E+03    0.10628E-01   -0.48342E+00 11600   0.347E-01    0.193E-01
RMM:  55    -0.103953281869E+03   -0.41592E-01   -0.29916E+00 11076   0.204E-01    0.249E-01
RMM:  56    -0.103930079052E+03    0.23203E-01   -0.43825E+00 11609   0.294E-01    0.245E-01
RMM:  57    -0.103891848969E+03    0.38230E-01   -0.43660E+00 12752   0.291E-01    0.230E-01
RMM:  58    -0.103882283692E+03    0.95653E-02   -0.32857E+00 11598   0.233E-01    0.183E-01
RMM:  59    -0.103921729053E+03   -0.39445E-01   -0.24031E+00 11452   0.180E-01    0.300E-01
RMM:  60    -0.103938846980E+03   -0.17118E-01   -0.48334E+00 12279   0.340E-01    0.278E-01
RMM:  61    -0.104052118576E+03   -0.11327E+00   -0.35991E+00 12683   0.279E-01    0.419E-01
RMM:  62    -0.103958977708E+03    0.93141E-01   -0.68264E+00 12492   0.469E-01    0.256E-01
RMM:  63    -0.104052905130E+03   -0.93927E-01   -0.45071E+00 12458   0.299E-01    0.345E-01
RMM:  64    -0.103937582206E+03    0.11532E+00   -0.57403E+00 12703   0.396E-01    0.303E-01
RMM:  65    -0.104001643064E+03   -0.64061E-01   -0.56366E+00 11629   0.376E-01    0.376E-01
RMM:  66    -0.104113701592E+03   -0.11206E+00   -0.61238E+00 12177   0.421E-01    0.390E-01
RMM:  67    -0.103912533244E+03    0.20117E+00   -0.70970E+00 12554   0.468E-01    0.235E-01
RMM:  68    -0.103922280607E+03   -0.97474E-02   -0.42900E+00 12548   0.281E-01    0.247E-01
RMM:  69    -0.103918941612E+03    0.33390E-02   -0.41242E+00 11906   0.282E-01    0.254E-01
RMM:  70    -0.103883543429E+03    0.35398E-01   -0.48838E+00 12243   0.312E-01    0.138E-01
RMM:  71    -0.103876277659E+03    0.72658E-02   -0.25635E+00 12301   0.165E-01    0.124E-01
RMM:  72    -0.103869361435E+03    0.69162E-02   -0.20229E+00 13646   0.141E-01    0.127E-01
RMM:  73    -0.103946047673E+03   -0.76686E-01   -0.23610E+00 12910   0.158E-01    0.312E-01
RMM:  74    -0.103985739682E+03   -0.39692E-01   -0.48316E+00 11470   0.345E-01    0.364E-01
RMM:  75    -0.103915730608E+03    0.70009E-01   -0.55602E+00 12410   0.389E-01    0.210E-01
RMM:  76    -0.104001323912E+03   -0.85593E-01   -0.28565E+00 13289   0.212E-01    0.317E-01
RMM:  77    -0.103974252620E+03    0.27071E-01   -0.53406E+00 14084   0.366E-01    0.425E-01
RMM:  78    -0.103901302009E+03    0.72951E-01   -0.62729E+00 12544   0.452E-01    0.188E-01
RMM:  79    -0.103983044120E+03   -0.81742E-01   -0.32729E+00 13007   0.221E-01    0.348E-01
RMM:  80    -0.103960884849E+03    0.22159E-01   -0.72303E+00 12287   0.449E-01
   8 F= -.10396088E+03 E0= -.10396208E+03  d E =-.241884E+00
       N       E                     dE             d eps       ncg     rms          rms(c)
DAV:   1    -0.103857165134E+03    0.12588E+00   -0.34910E+00 14336   0.132E+00    0.538E-02
RMM:   2    -0.103858809161E+03   -0.16440E-02   -0.15947E-02 14502   0.215E-01    0.442E-02
RMM:   3    -0.103858733217E+03    0.75944E-04   -0.15206E-03 17610   0.799E-02    0.365E-02
RMM:   4    -0.103858667260E+03    0.65957E-04   -0.42788E-05 14523   0.119E-02    0.156E-02
RMM:   5    -0.103858668178E+03   -0.91778E-06   -0.96563E-06 14623   0.509E-03
   9 F= -.10385867E+03 E0= -.10386330E+03  d E =-.139667E+00
       N       E                     dE             d eps       ncg     rms          rms(c)
DAV:   1    -0.103865946942E+03   -0.72797E-02   -0.27162E+00 17664   0.198E+00    0.106E-01
RMM:   2    -0.103872559310E+03   -0.66124E-02   -0.62497E-02 14479   0.421E-01    0.103E-01
RMM:   3    -0.103872044309E+03    0.51500E-03   -0.59836E-03 17505   0.154E-01    0.675E-02
RMM:   4    -0.103871861844E+03    0.18247E-03   -0.15994E-04 14970   0.232E-02    0.332E-02
RMM:   5    -0.103871886331E+03   -0.24487E-04   -0.38403E-05 15922   0.983E-03    0.307E-02
RMM:   6    -0.103871862620E+03    0.23711E-04   -0.23058E-05 14543   0.700E-03    0.188E-02
RMM:   7    -0.103871843663E+03    0.18957E-04   -0.13425E-05 14465   0.565E-03    0.396E-03
RMM:   8    -0.103871843540E+03    0.12341E-06   -0.12820E-06 11233   0.247E-03
  10 F= -.10387184E+03 E0= -.10387658E+03  d E =-.152843E+00
       N       E                     dE             d eps       ncg     rms          rms(c)
DAV:   1    -0.103856532800E+03    0.15311E-01   -0.10873E+01 14336   0.398E+00    0.213E-01
RMM:   2    -0.103884104789E+03   -0.27572E-01   -0.25560E-01 14459   0.853E-01    0.223E-01
RMM:   3    -0.103881454939E+03    0.26498E-02   -0.25002E-02 17528   0.323E-01    0.137E-01
RMM:   4    -0.103880724122E+03    0.73082E-03   -0.63800E-04 15032   0.468E-02    0.686E-02
RMM:   5    -0.103880743619E+03   -0.19497E-04   -0.12576E-04 16582   0.189E-02    0.603E-02
RMM:   6    -0.103880673621E+03    0.69997E-04   -0.83165E-05 14396   0.132E-02    0.375E-02
RMM:   7    -0.103880626132E+03    0.47489E-04   -0.76091E-05 14875   0.130E-02    0.840E-03
RMM:   8    -0.103880626231E+03   -0.98789E-07   -0.75726E-06 14690   0.571E-03
  11 F= -.10388063E+03 E0= -.10388560E+03  d E =-.161625E+00
       N       E                     dE             d eps       ncg     rms          rms(c)
DAV:   1    -0.103838943520E+03    0.41683E-01   -0.58579E+01 14336   0.931E+00    0.455E-01
RMM:   2    -0.103976561756E+03   -0.13762E+00   -0.13999E+00 14449   0.196E+00    0.220E-01
RMM:   3    -0.103986301235E+03   -0.97395E-02   -0.14335E-01 17545   0.731E-01    0.300E-01
RMM:   4    -0.103981492907E+03    0.48083E-02   -0.24889E-03 15231   0.911E-02    0.143E-01
RMM:   5    -0.103981634124E+03   -0.14122E-03   -0.75738E-04 15778   0.513E-02    0.988E-02
RMM:   6    -0.103981970453E+03   -0.33633E-03   -0.46880E-04 14647   0.357E-02    0.966E-02
RMM:   7    -0.103981459948E+03    0.51050E-03   -0.27528E-04 15624   0.285E-02    0.262E-02
RMM:   8    -0.103981443401E+03    0.16547E-04   -0.40285E-05 15693   0.119E-02    0.188E-02
RMM:   9    -0.103981433574E+03    0.98273E-05   -0.14425E-05 14333   0.820E-03    0.970E-03
RMM:  10    -0.103981436313E+03   -0.27392E-05   -0.86531E-06 14492   0.763E-03    0.512E-03
RMM:  11    -0.103981439990E+03   -0.36768E-05    0.14744E-05 11804   0.285E-03    0.311E-03
RMM:  12    -0.103981444244E+03   -0.42540E-05    0.25499E-05 10543   0.213E-03    0.134E-03
RMM:  13    -0.103981448521E+03   -0.42775E-05    0.41928E-05 10023   0.927E-04    0.825E-04
RMM:  14    -0.103981451173E+03   -0.26512E-05    0.68085E-05  9631   0.641E-04    0.535E-04
RMM:  15    -0.103981450625E+03    0.54737E-06    0.11254E-04  8554   0.457E-04    0.325E-04
RMM:  16    -0.103981449645E+03    0.98022E-06    0.15609E-04  8242   0.396E-04    0.191E-04
RMM:  17    -0.103981449202E+03    0.44291E-06    0.18255E-04  7298   0.318E-04    0.141E-04
RMM:  18    -0.103981438651E+03    0.10551E-04    0.31558E-04  7183   0.324E-04    0.130E-04
RMM:  19    -0.103981427335E+03    0.11316E-04    0.51006E-04  6900   0.285E-04    0.243E-04
RMM:  20    -0.103981412587E+03    0.14749E-04    0.77406E-04  6752   0.256E-04    0.480E-04
RMM:  21    -0.103981403778E+03    0.88087E-05    0.10134E-03  6748   0.225E-04    0.729E-04
RMM:  22    -0.103981435935E+03   -0.32157E-04    0.94108E-04  6755   0.193E-04    0.258E-04
RMM:  23    -0.103981451026E+03   -0.15091E-04    0.44803E-04  6766   0.323E-04    0.171E-04
RMM:  24    -0.103981372225E+03    0.78801E-04    0.92376E-04  6758   0.397E-04    0.143E-03
RMM:  25    -0.103980854883E+03    0.51734E-03    0.33860E-03  6781   0.793E-05    0.670E-03
RMM:  26    -0.103981234777E+03   -0.37989E-03    0.15166E-02  6822  -0.185E-03    0.324E-03
RMM:  27    -0.103980743469E+03    0.49131E-03    0.55256E-03  6686  -0.466E-04    0.443E-03
RMM:  28    -0.103981743686E+03   -0.10002E-02    0.11146E-02  6565  -0.108E-03    0.239E-02
RMM:  29    -0.103980599654E+03    0.11440E-02   -0.46044E-02  8798   0.807E-03    0.600E-03
RMM:  30    -0.103994903651E+03   -0.14304E-01    0.23016E-03  7972  -0.996E-04    0.445E-02
RMM:  31    -0.104013123404E+03   -0.18220E-01   -0.16984E-01  9457   0.188E-02    0.686E-02
RMM:  32    -0.104002945484E+03    0.10178E-01   -0.92031E-02  9861   0.164E-02    0.156E-01
RMM:  33    -0.104035178822E+03   -0.32233E-01   -0.10782E+00 11677   0.854E-02    0.168E-01
RMM:  34    -0.104045362042E+03   -0.10183E-01   -0.14246E+00 11983   0.114E-01    0.241E-01
RMM:  35    -0.104105924051E+03   -0.60562E-01   -0.11169E+00 12841   0.860E-02    0.406E-01
RMM:  36    -0.104106812505E+03   -0.88845E-03   -0.21824E+00 13183   0.146E-01    0.371E-01
RMM:  37    -0.104248120270E+03   -0.14131E+00   -0.27478E+00 13835   0.194E-01    0.604E-01
RMM:  38    -0.104107926921E+03    0.14019E+00   -0.83620E+00 13417   0.568E-01    0.329E-01
RMM:  39    -0.104072854260E+03    0.35073E-01   -0.29235E+00 13745   0.243E-01    0.336E-01
RMM:  40    -0.104047140827E+03    0.25713E-01   -0.40781E+00 12842   0.314E-01    0.328E-01
RMM:  41    -0.104036402382E+03    0.10738E-01   -0.45965E+00 13284   0.338E-01    0.236E-01
RMM:  42    -0.104066135171E+03   -0.29733E-01   -0.24634E+00 12642   0.209E-01    0.251E-01
RMM:  43    -0.104064065553E+03    0.20696E-02   -0.43680E+00 12829   0.287E-01    0.268E-01
RMM:  44    -0.104044115127E+03    0.19950E-01   -0.28880E+00 12731   0.233E-01    0.218E-01
RMM:  45    -0.104082130840E+03   -0.38016E-01   -0.33776E+00 12290   0.240E-01    0.286E-01
RMM:  46    -0.104055460854E+03    0.26670E-01   -0.45209E+00 12521   0.315E-01    0.203E-01
RMM:  47    -0.104026963069E+03    0.28498E-01   -0.26980E+00 12504   0.208E-01    0.113E-01
RMM:  48    -0.104028878282E+03   -0.19152E-02   -0.13986E+00 11618   0.109E-01    0.173E-01
RMM:  49    -0.104039389579E+03   -0.10511E-01   -0.26688E+00 10741   0.177E-01    0.193E-01
RMM:  50    -0.104024927077E+03    0.14463E-01   -0.30133E+00 11069   0.205E-01    0.230E-01
RMM:  51    -0.104068158542E+03   -0.43231E-01   -0.29708E+00 11848   0.217E-01    0.325E-01
RMM:  52    -0.104069380445E+03   -0.12219E-02   -0.44605E+00 11815   0.326E-01    0.219E-01
RMM:  53    -0.104011119552E+03    0.58261E-01   -0.33590E+00 12665   0.235E-01    0.175E-01
RMM:  54    -0.104030807449E+03   -0.19688E-01   -0.26829E+00 12087   0.186E-01    0.255E-01
RMM:  55    -0.104154420077E+03   -0.12361E+00   -0.32650E+00 11380   0.247E-01    0.465E-01
RMM:  56    -0.104017123372E+03    0.13730E+00   -0.70427E+00 12245   0.487E-01    0.228E-01
RMM:  57    -0.104072114722E+03   -0.54991E-01   -0.37571E+00 13141   0.261E-01    0.305E-01
RMM:  58    -0.104057159596E+03    0.14955E-01   -0.51541E+00 12106   0.356E-01    0.235E-01
RMM:  59    -0.104074834485E+03   -0.17675E-01   -0.41101E+00 11894   0.273E-01    0.252E-01
RMM:  60    -0.104007800614E+03    0.67034E-01   -0.36781E+00 10929   0.258E-01    0.122E-01
RMM:  61    -0.104019085230E+03   -0.11285E-01   -0.18513E+00 11697   0.128E-01    0.185E-01
RMM:  62    -0.104045777991E+03   -0.26693E-01   -0.25403E+00 10514   0.193E-01    0.286E-01
RMM:  63    -0.104050673714E+03   -0.48957E-02   -0.45934E+00 11677   0.320E-01    0.270E-01
RMM:  64    -0.104060056063E+03   -0.93823E-02   -0.46396E+00 11813   0.307E-01    0.238E-01
RMM:  65    -0.104047719898E+03    0.12336E-01   -0.32515E+00 12008   0.239E-01    0.230E-01
RMM:  66    -0.104087906452E+03   -0.40187E-01   -0.35498E+00 12742   0.255E-01    0.230E-01
RMM:  67    -0.104069440221E+03    0.18466E-01   -0.28383E+00 12405   0.221E-01    0.309E-01
RMM:  68    -0.104057348703E+03    0.12092E-01   -0.49858E+00 12161   0.348E-01    0.178E-01
RMM:  69    -0.104034228676E+03    0.23120E-01   -0.29101E+00 12208   0.204E-01    0.251E-01
RMM:  70    -0.104012430793E+03    0.21798E-01   -0.40471E+00 11776   0.278E-01    0.213E-01
RMM:  71    -0.104077738038E+03   -0.65307E-01   -0.34042E+00 10554   0.238E-01    0.233E-01
RMM:  72    -0.104051804901E+03    0.25933E-01   -0.40954E+00 14359   0.280E-01    0.209E-01
RMM:  73    -0.104044827561E+03    0.69773E-02   -0.37125E+00 12586   0.246E-01    0.208E-01
RMM:  74    -0.104049825345E+03   -0.49978E-02   -0.36524E+00 12962   0.243E-01    0.248E-01
RMM:  75    -0.103985846018E+03    0.63979E-01   -0.39509E+00 12101   0.278E-01    0.928E-02
RMM:  76    -0.104042566754E+03   -0.56721E-01   -0.14323E+00 13774   0.994E-02    0.220E-01
RMM:  77    -0.104043685191E+03   -0.11184E-02   -0.30541E+00 13768   0.230E-01    0.208E-01
RMM:  78    -0.104033940008E+03    0.97452E-02   -0.31741E+00 13060   0.226E-01    0.161E-01
RMM:  79    -0.104054155128E+03   -0.20215E-01   -0.20950E+00 13395   0.158E-01    0.282E-01
RMM:  80    -0.104010451695E+03    0.43703E-01   -0.43230E+00 11433   0.303E-01
  12 F= -.10401045E+03 E0= -.10400988E+03  d E =-.129825E+00
       N       E                     dE             d eps       ncg     rms          rms(c)
DAV:   1    -0.103283994716E+03    0.77016E+00   -0.28722E+02 14336   0.219E+01    0.103E+00
RMM:   2    -0.104033346620E+03   -0.74935E+00   -0.76196E+00 14386   0.449E+00    0.503E-01
RMM:   3    -0.104081819400E+03   -0.48473E-01   -0.72049E-01 17645   0.160E+00    0.594E-01
RMM:   4    -0.104064403833E+03    0.17416E-01   -0.13188E-02 15273   0.215E-01    0.326E-01
RMM:   5    -0.104064583367E+03   -0.17953E-03   -0.41838E-03 15457   0.121E-01    0.221E-01
RMM:   6    -0.104066266764E+03   -0.16834E-02   -0.29388E-03 14759   0.950E-02    0.204E-01
RMM:   7    -0.104063839300E+03    0.24275E-02   -0.15182E-03 15812   0.685E-02    0.638E-02
RMM:   8    -0.104063743116E+03    0.96184E-04   -0.23883E-04 16056   0.267E-02    0.476E-02
RMM:   9    -0.104063678296E+03    0.64819E-04   -0.17123E-04 14649   0.248E-02    0.177E-02
RMM:  10    -0.104063706716E+03   -0.28419E-04   -0.75587E-05 14691   0.164E-02    0.104E-02
RMM:  11    -0.104063726800E+03   -0.20085E-04    0.12708E-05 15139   0.657E-03    0.607E-03
RMM:  12    -0.104063749216E+03   -0.22416E-04    0.36092E-05 11653   0.273E-03    0.310E-03
RMM:  13    -0.104063778549E+03   -0.29332E-04    0.61581E-05 11209   0.202E-03    0.170E-03
RMM:  14    -0.104063795582E+03   -0.17033E-04    0.10978E-04 10818   0.149E-03    0.108E-03
RMM:  15    -0.104063804031E+03   -0.84491E-05    0.20306E-04 10559   0.108E-03    0.622E-04
RMM:  16    -0.104063794424E+03    0.96074E-05    0.41050E-04  9900   0.724E-04    0.437E-04
RMM:  17    -0.104063774967E+03    0.19456E-04    0.77112E-04  9050   0.457E-04    0.299E-04
RMM:  18    -0.104063739677E+03    0.35291E-04    0.13762E-03  7886   0.241E-04    0.416E-04
RMM:  19    -0.104063775226E+03   -0.35549E-04    0.13919E-03  6954   0.761E-05    0.381E-04
RMM:  20    -0.104063786673E+03   -0.11447E-04    0.87791E-04  7045   0.192E-04    0.444E-04
RMM:  21    -0.104063795131E+03   -0.84579E-05    0.80899E-04  6838   0.234E-04    0.550E-04
RMM:  22    -0.104063515774E+03    0.27936E-03    0.27555E-03  6790   0.243E-04    0.454E-03
RMM:  23    -0.104063079710E+03    0.43606E-03    0.10487E-02  7000  -0.116E-03    0.579E-03
RMM:  24    -0.104063661171E+03   -0.58146E-03    0.15575E-02  6864  -0.180E-03    0.191E-03
RMM:  25    -0.104062952310E+03    0.70886E-03    0.78633E-03  6778  -0.406E-04    0.921E-03
RMM:  26    -0.104060830186E+03    0.21221E-02    0.47084E-02  7447  -0.440E-03    0.943E-03
RMM:  27    -0.104067469889E+03   -0.66397E-02    0.44255E-02  7018  -0.440E-03    0.467E-02
RMM:  28    -0.104065962270E+03    0.15076E-02   -0.28347E-01  9919   0.298E-02    0.436E-02
RMM:  29    -0.104116992895E+03   -0.51031E-01   -0.28528E-01  9936   0.283E-02    0.119E-01
RMM:  30    -0.104078479739E+03    0.38513E-01   -0.12199E+00 11403   0.806E-02    0.708E-02
RMM:  31    -0.104084274060E+03   -0.57943E-02   -0.94774E-01 11191   0.623E-02    0.150E-01
RMM:  32    -0.104115253749E+03   -0.30980E-01   -0.17853E+00 10835   0.137E-01    0.241E-01
RMM:  33    -0.104097359025E+03    0.17895E-01   -0.26886E+00 12147   0.209E-01    0.175E-01
RMM:  34    -0.104121873643E+03   -0.24515E-01   -0.15095E+00 12322   0.135E-01    0.176E-01
RMM:  35    -0.104087087257E+03    0.34786E-01   -0.24623E+00 12101   0.178E-01    0.155E-01
RMM:  36    -0.104093146454E+03   -0.60592E-02   -0.25837E+00 11222   0.176E-01    0.163E-01
RMM:  37    -0.104108164177E+03   -0.15018E-01   -0.19374E+00 11261   0.152E-01    0.214E-01
RMM:  38    -0.104090121475E+03    0.18043E-01   -0.32068E+00 12530   0.226E-01    0.133E-01
RMM:  39    -0.104133815957E+03   -0.43694E-01   -0.10809E+00 11471   0.102E-01    0.205E-01
RMM:  40    -0.104063999231E+03    0.69817E-01   -0.29860E+00 10609   0.217E-01    0.274E-02
RMM:  41    -0.104141972651E+03   -0.77973E-01   -0.43974E-01 11147   0.304E-02    0.245E-01
RMM:  42    -0.104078854699E+03    0.63118E-01   -0.29209E+00 12273   0.229E-01    0.438E-02
RMM:  43    -0.104065079206E+03    0.13775E-01   -0.58239E-01 12736   0.455E-02    0.460E-02
RMM:  44    -0.104134023033E+03   -0.68944E-01   -0.45573E-01 10473   0.385E-02    0.154E-01
RMM:  45    -0.104075668903E+03    0.58354E-01   -0.19454E+00 10943   0.148E-01    0.756E-02
RMM:  46    -0.104097751720E+03   -0.22083E-01   -0.66855E-01 10668   0.604E-02    0.119E-01
RMM:  47    -0.104120411045E+03   -0.22659E-01   -0.16483E+00 10215   0.119E-01    0.156E-01
RMM:  48    -0.104138310153E+03   -0.17899E-01   -0.22584E+00 10634   0.161E-01    0.180E-01
RMM:  49    -0.104121065647E+03    0.17245E-01   -0.31356E+00 11282   0.207E-01    0.250E-01
RMM:  50    -0.104084579965E+03    0.36486E-01   -0.26163E+00 12057   0.220E-01    0.129E-01
RMM:  51    -0.104107755730E+03   -0.23176E-01   -0.22125E+00 11323   0.148E-01    0.178E-01
RMM:  52    -0.104106354874E+03    0.14009E-02   -0.22989E+00 10420   0.173E-01    0.183E-01
RMM:  53    -0.104102779247E+03    0.35756E-02   -0.27619E+00 10708   0.192E-01    0.151E-01
RMM:  54    -0.104102890912E+03   -0.11167E-03   -0.15717E+00 11210   0.132E-01    0.145E-01
RMM:  55    -0.104074978669E+03    0.27912E-01   -0.16232E+00 10848   0.129E-01    0.943E-02
RMM:  56    -0.104086703422E+03   -0.11725E-01   -0.11405E+00 10680   0.861E-02    0.109E-01
RMM:  57    -0.104082006615E+03    0.46968E-02   -0.12011E+00 10557   0.102E-01    0.143E-01
RMM:  58    -0.104136958793E+03   -0.54952E-01   -0.21969E+00 11123   0.154E-01    0.280E-01
RMM:  59    -0.104123560212E+03    0.13399E-01   -0.39746E+00 11425   0.280E-01    0.162E-01
RMM:  60    -0.104160703089E+03   -0.37143E-01   -0.25648E+00 10598   0.176E-01    0.211E-01
RMM:  61    -0.104116522923E+03    0.44180E-01   -0.32752E+00 10788   0.225E-01    0.958E-02
RMM:  62    -0.104102651162E+03    0.13872E-01   -0.16548E+00 11407   0.109E-01    0.241E-01
RMM:  63    -0.104094203027E+03    0.84481E-02   -0.29130E+00 10952   0.228E-01    0.147E-01
RMM:  64    -0.104090169032E+03    0.40340E-02   -0.23101E+00 10566   0.157E-01    0.977E-02
RMM:  65    -0.104083815034E+03    0.63540E-02   -0.14320E+00 10339   0.100E-01    0.807E-02
RMM:  66    -0.104080766231E+03    0.30488E-02   -0.13601E+00 10413   0.903E-02    0.878E-02
RMM:  67    -0.104113179298E+03   -0.32413E-01   -0.14878E+00 10452   0.982E-02    0.231E-01
RMM:  68    -0.104109781010E+03    0.33983E-02   -0.32025E+00 12122   0.238E-01    0.244E-01
RMM:  69    -0.104109953417E+03   -0.17241E-03   -0.35877E+00 11350   0.255E-01    0.233E-01
RMM:  70    -0.104111195022E+03   -0.12416E-02   -0.28631E+00 12102   0.217E-01    0.120E-01
RMM:  71    -0.104107666098E+03    0.35289E-02   -0.21659E+00 11270   0.139E-01    0.127E-01
RMM:  72    -0.104123309378E+03   -0.15643E-01   -0.20652E+00 13179   0.139E-01    0.169E-01
RMM:  73    -0.104088730230E+03    0.34579E-01   -0.26276E+00 10401   0.185E-01    0.170E-01
RMM:  74    -0.104065928935E+03    0.22801E-01   -0.25200E+00 10515   0.171E-01    0.543E-02
RMM:  75    -0.104075080435E+03   -0.91515E-02   -0.11970E+00 12084   0.722E-02    0.112E-01
RMM:  76    -0.104084550539E+03   -0.94701E-02   -0.17275E+00 10650   0.121E-01    0.175E-01
RMM:  77    -0.104126067920E+03   -0.41517E-01   -0.23876E+00 12303   0.170E-01    0.200E-01
RMM:  78    -0.104097548705E+03    0.28519E-01   -0.32541E+00 11317   0.216E-01    0.194E-01
RMM:  79    -0.104074425416E+03    0.23123E-01   -0.31973E+00 10584   0.208E-01    0.105E-01
RMM:  80    -0.104084131242E+03   -0.97058E-02   -0.15470E+00 11212   0.112E-01
  13 F= -.10408413E+03 E0= -.10409424E+03  d E =-.203505E+00
       N       E                     dE             d eps       ncg     rms          rms(c)
DAV:   1    -0.103950365016E+03    0.12406E+00   -0.91768E+01 14976   0.122E+01    0.560E-01
RMM:   2    -0.104149029049E+03   -0.19866E+00   -0.20216E+00 14421   0.248E+00    0.302E-01
RMM:   3    -0.104162238800E+03   -0.13210E-01   -0.20352E-01 17716   0.911E-01    0.363E-01
RMM:   4    -0.104154299108E+03    0.79397E-02   -0.40213E-03 15206   0.117E-01    0.168E-01
RMM:   5    -0.104154811274E+03   -0.51217E-03   -0.11729E-03 15742   0.644E-02    0.126E-01
RMM:   6    -0.104154417266E+03    0.39401E-03   -0.70986E-04 14681   0.473E-02    0.690E-02
RMM:   7    -0.104154215187E+03    0.20208E-03   -0.24228E-04 16523   0.275E-02    0.271E-02
RMM:   8    -0.104154197058E+03    0.18130E-04   -0.29282E-05 14961   0.114E-02    0.174E-02
RMM:   9    -0.104154200652E+03   -0.35942E-05   -0.35354E-05 14398   0.115E-02    0.759E-03
RMM:  10    -0.104154211217E+03   -0.10566E-04   -0.17386E-06 15290   0.531E-03    0.456E-03
RMM:  11    -0.104154224032E+03   -0.12815E-04    0.10975E-05 10928   0.231E-03    0.244E-03
RMM:  12    -0.104154239012E+03   -0.14980E-04    0.18428E-05 10539   0.150E-03    0.132E-03
RMM:  13    -0.104154254920E+03   -0.15908E-04    0.29829E-05 10502   0.115E-03    0.846E-04
RMM:  14    -0.104154263220E+03   -0.83002E-05    0.49212E-05 10179   0.801E-04    0.480E-04
RMM:  15    -0.104154264701E+03   -0.14807E-05    0.82263E-05  9365   0.559E-04    0.316E-04
RMM:  16    -0.104154262037E+03    0.26633E-05    0.14157E-04  8179   0.405E-04    0.186E-04
RMM:  17    -0.104154253953E+03    0.80848E-05    0.25780E-04  7110   0.320E-04    0.140E-04
RMM:  18    -0.104154245435E+03    0.85173E-05    0.40640E-04  6972   0.300E-04    0.125E-04
RMM:  19    -0.104154221398E+03    0.24038E-04    0.76361E-04  6812   0.281E-04    0.344E-04
RMM:  20    -0.104154234381E+03   -0.12984E-04    0.79392E-04  6867   0.229E-04    0.306E-04
RMM:  21    -0.104154178243E+03    0.56138E-04    0.13575E-03  6689   0.253E-04    0.109E-03
RMM:  22    -0.104154210449E+03   -0.32206E-04    0.20926E-03  6678   0.312E-05    0.716E-04
RMM:  23    -0.104154108021E+03    0.10243E-03    0.23142E-03  6638   0.132E-04    0.239E-03
RMM:  24    -0.104154103834E+03    0.41869E-05    0.62849E-03  6664  -0.427E-04    0.243E-03
RMM:  25    -0.104154039253E+03    0.64581E-04    0.73076E-03  6627  -0.451E-04    0.340E-03
RMM:  26    -0.104152706600E+03    0.13327E-02    0.67110E-03  6636  -0.359E-04    0.121E-02
RMM:  27    -0.104159610639E+03   -0.69040E-02    0.38898E-02  7284  -0.449E-03    0.500E-02
RMM:  28    -0.104188495465E+03   -0.28885E-01   -0.15463E-01  9960   0.231E-02    0.153E-01
RMM:  29    -0.104183394135E+03    0.51013E-02   -0.17368E+00 10578   0.136E-01    0.562E-02
RMM:  30    -0.104170975026E+03    0.12419E-01   -0.58479E-01 10602   0.475E-02    0.647E-02
RMM:  31    -0.104237450685E+03   -0.66476E-01   -0.31825E-01 10161   0.392E-02    0.225E-01
RMM:  32    -0.104187843741E+03    0.49607E-01   -0.28466E+00 12634   0.213E-01    0.195E-01
RMM:  33    -0.104280798086E+03   -0.92954E-01   -0.19019E+00 11270   0.155E-01    0.353E-01
RMM:  34    -0.104335302671E+03   -0.54505E-01   -0.51032E+00 12878   0.356E-01    0.399E-01
RMM:  35    -0.104209181127E+03    0.12612E+00   -0.55469E+00 12620   0.402E-01    0.244E-01
RMM:  36    -0.104198208731E+03    0.10972E-01   -0.34347E+00 12715   0.251E-01    0.157E-01
RMM:  37    -0.104202585707E+03   -0.43770E-02   -0.20753E+00 11809   0.157E-01    0.217E-01
RMM:  38    -0.104200814606E+03    0.17711E-02   -0.34080E+00 12209   0.238E-01    0.191E-01
RMM:  39    -0.104191333570E+03    0.94810E-02   -0.25271E+00 11800   0.191E-01    0.176E-01
RMM:  40    -0.104161705614E+03    0.29628E-01   -0.20786E+00 10925   0.162E-01    0.833E-02
RMM:  41    -0.104185474715E+03   -0.23769E-01   -0.79517E-01 11164   0.682E-02    0.195E-01
RMM:  42    -0.104176899880E+03    0.85748E-02   -0.24962E+00 11014   0.183E-01    0.795E-02
RMM:  43    -0.104183220977E+03   -0.63211E-02   -0.10560E+00 10884   0.743E-02    0.136E-01
RMM:  44    -0.104182549403E+03    0.67157E-03   -0.20170E+00 10816   0.138E-01    0.206E-01
RMM:  45    -0.104166534135E+03    0.16015E-01   -0.29135E+00 11041   0.214E-01    0.896E-02
RMM:  46    -0.104177266070E+03   -0.10732E-01   -0.12222E+00 11184   0.894E-02    0.112E-01
RMM:  47    -0.104188486374E+03   -0.11220E-01   -0.18646E+00 10288   0.125E-01    0.117E-01
RMM:  48    -0.104194036849E+03   -0.55505E-02   -0.13913E+00 10496   0.105E-01    0.152E-01
RMM:  49    -0.104194254959E+03   -0.21811E-03   -0.21366E+00 10746   0.159E-01    0.133E-01
RMM:  50    -0.104180370753E+03    0.13884E-01   -0.18278E+00 11421   0.134E-01    0.104E-01
RMM:  51    -0.104271284662E+03   -0.90914E-01   -0.10867E+00 10616   0.898E-02    0.245E-01
RMM:  52    -0.104217631296E+03    0.53653E-01   -0.26222E+00 11956   0.216E-01    0.180E-01
RMM:  53    -0.104176445607E+03    0.41186E-01   -0.27798E+00 11543   0.194E-01    0.911E-02
RMM:  54    -0.104173183957E+03    0.32617E-02   -0.99081E-01 10533   0.817E-02    0.114E-01
RMM:  55    -0.104186448116E+03   -0.13264E-01   -0.18356E+00 10674   0.127E-01    0.191E-01
RMM:  56    -0.104193016390E+03   -0.65683E-02   -0.22411E+00 11185   0.183E-01    0.181E-01
RMM:  57    -0.104203628676E+03   -0.10612E-01   -0.32618E+00 11475   0.215E-01    0.159E-01
RMM:  58    -0.104199945978E+03    0.36827E-02   -0.27064E+00 10995   0.177E-01    0.130E-01
RMM:  59    -0.104239204527E+03   -0.39259E-01   -0.21122E+00 10809   0.149E-01    0.266E-01
RMM:  60    -0.104200017111E+03    0.39187E-01   -0.49814E+00 12472   0.326E-01    0.181E-01
RMM:  61    -0.104203302521E+03   -0.32854E-02   -0.26804E+00 11885   0.190E-01    0.169E-01
RMM:  62    -0.104209491613E+03   -0.61891E-02   -0.25987E+00 11586   0.174E-01    0.214E-01
RMM:  63    -0.104167897785E+03    0.41594E-01   -0.26913E+00 10473   0.204E-01    0.122E-01
RMM:  64    -0.104154907271E+03    0.12991E-01   -0.18829E+00 10350   0.130E-01    0.498E-02
RMM:  65    -0.104188981310E+03   -0.34074E-01   -0.47600E-01 10923   0.369E-02    0.165E-01
RMM:  66    -0.104248739215E+03   -0.59758E-01   -0.15231E+00 10688   0.131E-01    0.268E-01
RMM:  67    -0.104201255960E+03    0.47483E-01   -0.32041E+00 13078   0.245E-01    0.173E-01
RMM:  68    -0.104208325086E+03   -0.70691E-02   -0.23175E+00 10792   0.170E-01    0.187E-01
RMM:  69    -0.104240378231E+03   -0.32053E-01   -0.32840E+00 10603   0.215E-01    0.255E-01
RMM:  70    -0.104281602268E+03   -0.41224E-01   -0.33536E+00 11100   0.254E-01    0.335E-01
RMM:  71    -0.104270512063E+03    0.11090E-01   -0.56960E+00 12708   0.378E-01    0.268E-01
RMM:  72    -0.104234253168E+03    0.36259E-01   -0.43405E+00 14115   0.288E-01    0.315E-01
RMM:  73    -0.104261091003E+03   -0.26838E-01   -0.41765E+00 11531   0.314E-01    0.259E-01
RMM:  74    -0.104197145458E+03    0.63946E-01   -0.45126E+00 12709   0.300E-01    0.147E-01
RMM:  75    -0.104226683752E+03   -0.29538E-01   -0.17405E+00 13072   0.140E-01    0.255E-01
RMM:  76    -0.104249886882E+03   -0.23203E-01   -0.48128E+00 10878   0.306E-01    0.264E-01
RMM:  77    -0.104213434977E+03    0.36452E-01   -0.41326E+00 13153   0.285E-01    0.281E-01
RMM:  78    -0.104227631664E+03   -0.14197E-01   -0.38410E+00 11078   0.280E-01    0.288E-01
RMM:  79    -0.104236924605E+03   -0.92929E-02   -0.44373E+00 11606   0.306E-01    0.331E-01
RMM:  80    -0.104258110684E+03   -0.21186E-01   -0.56160E+00 11891   0.376E-01
  14 F= -.10425811E+03 E0= -.10426342E+03  d E =-.173979E+00
       N       E                     dE             d eps       ncg     rms          rms(c)
DAV:   1    -0.103905350649E+03    0.33157E+00   -0.11011E+02 14336   0.136E+01    0.639E-01
RMM:   2    -0.104166573012E+03   -0.26122E+00   -0.26594E+00 14418   0.283E+00    0.317E-01
RMM:   3    -0.104184738686E+03   -0.18166E-01   -0.27371E-01 17780   0.105E+00    0.375E-01
RMM:   4    -0.104176412024E+03    0.83267E-02   -0.49382E-03 15231   0.134E-01    0.193E-01
RMM:   5    -0.104176399791E+03    0.12233E-04   -0.21106E-03 15268   0.917E-02    0.900E-02
RMM:   6    -0.104176593025E+03   -0.19323E-03   -0.95651E-04 15369   0.569E-02    0.696E-02
RMM:   7    -0.104176361199E+03    0.23183E-03   -0.19300E-04 16454   0.222E-02    0.374E-02
RMM:   8    -0.104176312105E+03    0.49094E-04   -0.35893E-05 15168   0.128E-02    0.228E-02
[...]
RMM:  46    -0.104333529820E+03   -0.62421E-01   -0.30165E+00 11544   0.204E-01    0.232E-01
RMM:  47    -0.104281907096E+03    0.51623E-01   -0.31218E+00 10718   0.231E-01    0.205E-01
RMM:  48    -0.104255037274E+03    0.26870E-01   -0.34678E+00 11769   0.232E-01    0.105E-01
RMM:  49    -0.104285810560E+03   -0.30773E-01   -0.10126E+00 11425   0.859E-02    0.184E-01
RMM:  50    -0.104276952887E+03    0.88577E-02   -0.24490E+00 10657   0.178E-01    0.284E-01
RMM:  51    -0.104364876912E+03   -0.87924E-01   -0.40363E+00 11537   0.288E-01    0.366E-01
RMM:  52    -0.104345677037E+03    0.19200E-01   -0.42695E+00 12536   0.339E-01    0.339E-01
RMM:  53    -0.104280209915E+03    0.65467E-01   -0.39774E+00 12789   0.311E-01    0.219E-01
RMM:  54    -0.104299942082E+03   -0.19732E-01   -0.34039E+00 11571   0.233E-01    0.227E-01
RMM:  55    -0.104367504848E+03   -0.67563E-01   -0.30777E+00 10663   0.228E-01    0.331E-01
RMM:  56    -0.104284655611E+03    0.82849E-01   -0.49766E+00 12680   0.347E-01    0.179E-01
RMM:  57    -0.104298504753E+03   -0.13849E-01   -0.29909E+00 12450   0.203E-01    0.185E-01
RMM:  58    -0.104306017058E+03   -0.75123E-02   -0.27123E+00 10952   0.192E-01    0.276E-01
RMM:  59    -0.104290044271E+03    0.15973E-01   -0.47277E+00 11097   0.312E-01    0.216E-01
RMM:  60    -0.104297806539E+03   -0.77623E-02   -0.34230E+00 11269   0.234E-01    0.268E-01
RMM:  61    -0.104237947558E+03    0.59859E-01   -0.38883E+00 11421   0.274E-01    0.139E-01
RMM:  62    -0.104235070136E+03    0.28774E-02   -0.24031E+00 11796   0.161E-01    0.142E-01
RMM:  63    -0.104271881823E+03   -0.36812E-01   -0.22422E+00 10657   0.151E-01    0.163E-01
RMM:  64    -0.104250778850E+03    0.21103E-01   -0.26041E+00 10958   0.173E-01    0.165E-01
RMM:  65    -0.104335575751E+03   -0.84797E-01   -0.25726E+00 10581   0.177E-01    0.291E-01
RMM:  66    -0.104267398697E+03    0.68177E-01   -0.48773E+00 12340   0.325E-01    0.184E-01
RMM:  67    -0.104274615719E+03   -0.72170E-02   -0.30756E+00 12441   0.199E-01    0.158E-01
RMM:  68    -0.104292461637E+03   -0.17846E-01   -0.28898E+00 10500   0.188E-01    0.322E-01
RMM:  69    -0.104256196334E+03    0.36265E-01   -0.53825E+00 12183   0.363E-01    0.197E-01
RMM:  70    -0.104315242910E+03   -0.59047E-01   -0.27378E+00 12201   0.202E-01    0.252E-01
RMM:  71    -0.104236571137E+03    0.78672E-01   -0.40781E+00 11643   0.275E-01    0.173E-01
RMM:  72    -0.104277811236E+03   -0.41240E-01   -0.31981E+00 15053   0.212E-01    0.210E-01
RMM:  73    -0.104282206637E+03   -0.43954E-02   -0.32632E+00 13960   0.228E-01    0.216E-01
RMM:  74    -0.104350722836E+03   -0.68516E-01   -0.22329E+00 13295   0.184E-01    0.291E-01
RMM:  75    -0.104280921893E+03    0.69801E-01   -0.44611E+00 12428   0.309E-01    0.182E-01
RMM:  76    -0.104257754557E+03    0.23167E-01   -0.32750E+00 13205   0.213E-01    0.157E-01
RMM:  77    -0.104327068199E+03   -0.69314E-01   -0.22531E+00 13804   0.163E-01    0.352E-01
RMM:  78    -0.104328530600E+03   -0.14624E-02   -0.54892E+00 12278   0.378E-01    0.262E-01
RMM:  79    -0.104291611496E+03    0.36919E-01   -0.39816E+00 13232   0.282E-01    0.269E-01
RMM:  80    -0.104329331280E+03   -0.37720E-01   -0.41300E+00 12422   0.281E-01
  16 F= -.10432933E+03 E0= -.10433309E+03  d E =-.143347E+00
       N       E                     dE             d eps       ncg     rms          rms(c)
DAV:   1    -0.104145076565E+03    0.14653E+00   -0.32792E+01 14336   0.693E+00    0.351E-01
RMM:   2    -0.104213439406E+03   -0.68363E-01   -0.69664E-01 14456   0.140E+00    0.201E-01
RMM:   3    -0.104215092994E+03   -0.16536E-02   -0.68920E-02 17796   0.536E-01    0.189E-01
RMM:   4    -0.104212867595E+03    0.22254E-02   -0.15503E-03 15206   0.711E-02    0.971E-02
RMM:   5    -0.104212884511E+03   -0.16916E-04   -0.52603E-04 15479   0.420E-02    0.539E-02
RMM:   6    -0.104212934483E+03   -0.49973E-04   -0.21917E-04 15836   0.240E-02    0.375E-02
RMM:   7    -0.104212833310E+03    0.10117E-03   -0.28419E-05 16032   0.917E-03    0.140E-02
RMM:   8    -0.104212825663E+03    0.76474E-05   -0.64248E-06 13810   0.517E-03    0.801E-03
RMM:   9    -0.104212827312E+03   -0.16488E-05   -0.72767E-06 13692   0.535E-03    0.385E-03
RMM:  10    -0.104212830133E+03   -0.28210E-05    0.34439E-06 12286   0.269E-03    0.230E-03
RMM:  11    -0.104212834882E+03   -0.47488E-05    0.77857E-06 10329   0.155E-03    0.131E-03
RMM:  12    -0.104212839678E+03   -0.47961E-05    0.12540E-05 10281   0.115E-03    0.862E-04
RMM:  13    -0.104212843810E+03   -0.41320E-05    0.19974E-05  9810   0.777E-04    0.576E-04
RMM:  14    -0.104212846547E+03   -0.27370E-05    0.31602E-05  8704   0.599E-04    0.351E-04
RMM:  15    -0.104212847116E+03   -0.56885E-06    0.50399E-05  8255   0.513E-04    0.196E-04
RMM:  16    -0.104212845196E+03    0.19194E-05    0.81296E-05  7300   0.386E-04    0.118E-04
RMM:  17    -0.104212841284E+03    0.39123E-05    0.13408E-04  7155   0.354E-04    0.698E-05
RMM:  18    -0.104212834295E+03    0.69889E-05    0.22831E-04  6757   0.314E-04    0.899E-05
RMM:  19    -0.104212826437E+03    0.78577E-05    0.35245E-04  6572   0.286E-04    0.185E-04
RMM:  20    -0.104212821897E+03    0.45403E-05    0.46946E-04  6555   0.253E-04    0.302E-04
RMM:  21    -0.104212789169E+03    0.32728E-04    0.93431E-04  6504   0.237E-04    0.692E-04
RMM:  22    -0.104212806443E+03   -0.17274E-04    0.10220E-03  6562   0.136E-04    0.463E-04
RMM:  23    -0.104212790917E+03    0.15526E-04    0.11207E-03  6464   0.182E-04    0.758E-04
RMM:  24    -0.104212729789E+03    0.61128E-04    0.21781E-03  6474   0.104E-04    0.179E-03
RMM:  25    -0.104212590681E+03    0.13911E-03    0.50986E-03  6461  -0.201E-04    0.345E-03
RMM:  26    -0.104211382174E+03    0.12085E-02    0.11647E-02  6431  -0.932E-04    0.669E-03
RMM:  27    -0.104253894737E+03   -0.42513E-01    0.37650E-02  6505  -0.314E-03    0.625E-02
RMM:  28    -0.104233585465E+03    0.20309E-01   -0.96827E-01 10132   0.587E-02    0.409E-02
RMM:  29    -0.104278335265E+03   -0.44750E-01   -0.59519E-01  9891   0.395E-02    0.106E-01
RMM:  30    -0.104368257833E+03   -0.89923E-01   -0.15263E+00 11402   0.100E-01    0.302E-01
RMM:  31    -0.104300066729E+03    0.68191E-01   -0.43654E+00 12407   0.313E-01    0.295E-01
RMM:  32    -0.104412442845E+03   -0.11238E+00   -0.43960E+00 12840   0.308E-01    0.511E-01
RMM:  33    -0.104455311916E+03   -0.42869E-01   -0.75459E+00 12791   0.541E-01    0.366E-01
RMM:  34    -0.104360223564E+03    0.95088E-01   -0.51551E+00 13116   0.376E-01    0.495E-01
RMM:  35    -0.104287398485E+03    0.72825E-01   -0.63144E+00 12771   0.471E-01    0.222E-01
RMM:  36    -0.104256477614E+03    0.30921E-01   -0.33404E+00 12661   0.237E-01    0.209E-01
RMM:  37    -0.104310484327E+03   -0.54007E-01   -0.29832E+00 11285   0.211E-01    0.286E-01
RMM:  38    -0.104282067695E+03    0.28417E-01   -0.29395E+00 12611   0.248E-01    0.220E-01
RMM:  39    -0.104257109318E+03    0.24958E-01   -0.33628E+00 12334   0.235E-01    0.115E-01
RMM:  40    -0.104290510805E+03   -0.33401E-01   -0.14460E+00 11048   0.110E-01    0.163E-01
RMM:  41    -0.104292899611E+03   -0.23888E-02   -0.27464E+00 10650   0.182E-01    0.215E-01
RMM:  42    -0.104237839208E+03    0.55060E-01   -0.29768E+00 10990   0.205E-01    0.123E-01
RMM:  43    -0.104265509566E+03   -0.27670E-01   -0.25242E+00 11315   0.158E-01    0.224E-01
RMM:  44    -0.104226088179E+03    0.39421E-01   -0.29194E+00 11831   0.215E-01    0.106E-01
RMM:  45    -0.104231631402E+03   -0.55432E-02   -0.15237E+00 11582   0.109E-01    0.143E-01
RMM:  46    -0.104250215410E+03   -0.18584E-01   -0.16853E+00 10335   0.129E-01    0.204E-01
RMM:  47    -0.104241392726E+03    0.88227E-02   -0.33414E+00 11303   0.222E-01    0.112E-01
RMM:  48    -0.104281589756E+03   -0.40197E-01   -0.17481E+00 10997   0.120E-01    0.255E-01
RMM:  49    -0.104333185461E+03   -0.51596E-01   -0.28218E+00 10934   0.229E-01    0.295E-01
RMM:  50    -0.104234540635E+03    0.98645E-01   -0.54411E+00 11394   0.350E-01    0.158E-01
RMM:  51    -0.104251997656E+03   -0.17457E-01   -0.26545E+00 11899   0.175E-01    0.157E-01
RMM:  52    -0.104244068734E+03    0.79289E-02   -0.16144E+00 10835   0.136E-01    0.163E-01
RMM:  53    -0.104245567843E+03   -0.14991E-02   -0.22502E+00 11294   0.166E-01    0.223E-01
RMM:  54    -0.104289922584E+03   -0.44355E-01   -0.32118E+00 11811   0.225E-01    0.316E-01
RMM:  55    -0.104243572539E+03    0.46350E-01   -0.43148E+00 12045   0.309E-01    0.136E-01
RMM:  56    -0.104283557239E+03   -0.39985E-01   -0.19920E+00 11742   0.137E-01    0.280E-01
RMM:  57    -0.104300914560E+03   -0.17357E-01   -0.44412E+00 11313   0.300E-01    0.176E-01
RMM:  58    -0.104271719462E+03    0.29195E-01   -0.23929E+00 11768   0.176E-01    0.212E-01
RMM:  59    -0.104263856473E+03    0.78630E-02   -0.31100E+00 10769   0.222E-01    0.160E-01
RMM:  60    -0.104292397170E+03   -0.28541E-01   -0.24490E+00 10735   0.171E-01    0.211E-01
RMM:  61    -0.104243868632E+03    0.48529E-01   -0.32708E+00 10529   0.221E-01    0.127E-01
RMM:  62    -0.104256491315E+03   -0.12623E-01   -0.19369E+00 11699   0.127E-01    0.217E-01
RMM:  63    -0.104244533977E+03    0.11957E-01   -0.34402E+00 10484   0.236E-01    0.150E-01
RMM:  64    -0.104259330502E+03   -0.14797E-01   -0.20785E+00 10933   0.151E-01    0.193E-01
RMM:  65    -0.104221499623E+03    0.37831E-01   -0.30313E+00 10845   0.207E-01    0.114E-01
RMM:  66    -0.104241259706E+03   -0.19760E-01   -0.16808E+00 10439   0.116E-01    0.227E-01
RMM:  67    -0.104294133094E+03   -0.52873E-01   -0.28563E+00 11016   0.217E-01    0.302E-01
RMM:  68    -0.104296133114E+03   -0.20000E-02   -0.42445E+00 12123   0.306E-01    0.211E-01
RMM:  69    -0.104291022789E+03    0.51103E-02   -0.30836E+00 11529   0.214E-01    0.149E-01
RMM:  70    -0.104249039959E+03    0.41983E-01   -0.24318E+00 10844   0.158E-01    0.181E-01
RMM:  71    -0.104293333538E+03   -0.44294E-01   -0.20910E+00 10934   0.164E-01    0.277E-01
RMM:  72    -0.104285206227E+03    0.81273E-02   -0.48095E+00 14308   0.320E-01    0.249E-01
RMM:  73    -0.104293705861E+03   -0.84996E-02   -0.34162E+00 12803   0.251E-01    0.224E-01
RMM:  74    -0.104251382840E+03    0.42323E-01   -0.28819E+00 12666   0.217E-01    0.183E-01
RMM:  75    -0.104280917175E+03   -0.29534E-01   -0.30180E+00 13057   0.201E-01    0.218E-01
RMM:  76    -0.104337235472E+03   -0.56318E-01   -0.33727E+00 11103   0.230E-01    0.375E-01
RMM:  77    -0.104310642120E+03    0.26593E-01   -0.51908E+00 13136   0.377E-01    0.285E-01
RMM:  78    -0.104319149239E+03   -0.85071E-02   -0.39755E+00 12727   0.283E-01    0.288E-01
RMM:  79    -0.104242730691E+03    0.76419E-01   -0.47505E+00 11836   0.317E-01    0.118E-01
RMM:  80    -0.104286090351E+03   -0.43360E-01   -0.23326E+00 12801   0.148E-01
  17 F= -.10428609E+03 E0= -.10429718E+03  d E =-.100106E+00
       N       E                     dE             d eps       ncg     rms          rms(c)
DAV:   1    -0.104209314637E+03    0.33416E-01   -0.67822E+00 14336   0.285E+00    0.142E-01
RMM:   2    -0.104220518869E+03   -0.11204E-01   -0.11370E-01 14515   0.569E-01    0.841E-02
RMM:   3    -0.104220655977E+03   -0.13711E-03   -0.10734E-02 17773   0.214E-01    0.749E-02
RMM:   4    -0.104220283204E+03    0.37277E-03   -0.26883E-04 15290   0.302E-02    0.366E-02
RMM:   5    -0.104220307410E+03   -0.24205E-04   -0.80791E-05 15622   0.146E-02    0.246E-02
RMM:   6    -0.104220303872E+03    0.35377E-05   -0.23697E-05 15025   0.779E-03    0.136E-02
RMM:   7    -0.104220292435E+03    0.11437E-04   -0.42911E-06 13597   0.376E-03    0.479E-03
RMM:   8    -0.104220292133E+03    0.30176E-06   -0.43977E-07 10304   0.211E-03
  18 F= -.10422029E+03 E0= -.10422839E+03  d E =-.343076E-01
       N       E                     dE             d eps       ncg     rms          rms(c)
DAV:   1    -0.104098257650E+03    0.12203E+00   -0.63114E+01 14336   0.996E+00    0.523E-01
RMM:   2    -0.104250582809E+03   -0.15233E+00   -0.15654E+00 14460   0.215E+00    0.261E-01
RMM:   3    -0.104257673871E+03   -0.70911E-02   -0.16128E-01 17453   0.811E-01    0.281E-01
RMM:   4    -0.104253711018E+03    0.39629E-02   -0.31033E-03 15161   0.102E-01    0.150E-01
RMM:   5    -0.104253635825E+03    0.75192E-04   -0.82341E-04 15559   0.577E-02    0.945E-02
RMM:   6    -0.104253777407E+03   -0.14158E-03   -0.85602E-04 14646   0.501E-02    0.432E-02
RMM:   7    -0.104253652958E+03    0.12445E-03   -0.13080E-04 17432   0.219E-02    0.249E-02
RMM:   8    -0.104253625856E+03    0.27102E-04   -0.21473E-05 14626   0.942E-03    0.139E-02
RMM:   9    -0.104253625867E+03   -0.11078E-07   -0.26019E-05 14434   0.104E-02    0.533E-03
RMM:  10    -0.104253631519E+03   -0.56517E-05    0.24038E-06 14679   0.455E-03    0.425E-03
RMM:  11    -0.104253636784E+03   -0.52657E-05    0.13827E-05 11224   0.250E-03    0.191E-03
RMM:  12    -0.104253642557E+03   -0.57727E-05    0.23507E-05 10303   0.132E-03    0.124E-03
RMM:  13    -0.104253647704E+03   -0.51473E-05    0.38230E-05 10055   0.960E-04    0.820E-04
RMM:  14    -0.104253651276E+03   -0.35718E-05    0.62411E-05  9517   0.721E-04    0.489E-04
RMM:  15    -0.104253651289E+03   -0.12700E-07    0.10396E-04  8845   0.523E-04    0.299E-04
RMM:  16    -0.104253647366E+03    0.39232E-05    0.17895E-04  8178   0.454E-04    0.165E-04
RMM:  17    -0.104253648070E+03   -0.70452E-06    0.20252E-04  7311   0.340E-04    0.167E-04
RMM:  18    -0.104253636265E+03    0.11805E-04    0.34078E-04  6914   0.312E-04    0.174E-04
RMM:  19    -0.104253618057E+03    0.18208E-04    0.62174E-04  6772   0.272E-04    0.424E-04
RMM:  20    -0.104253599317E+03    0.18740E-04    0.98173E-04  6708   0.215E-04    0.602E-04
RMM:  21    -0.104253537737E+03    0.61579E-04    0.15419E-03  6706   0.183E-04    0.126E-03
RMM:  22    -0.104253620056E+03   -0.82319E-04    0.16992E-03  6748  -0.412E-05    0.432E-04
RMM:  23    -0.104253611055E+03    0.90012E-05    0.89750E-04  6681   0.253E-04    0.839E-04
RMM:  24    -0.104253491460E+03    0.11959E-03    0.15386E-03  6678   0.215E-04    0.199E-03
RMM:  25    -0.104253332727E+03    0.15873E-03    0.43068E-03  6727  -0.203E-04    0.459E-03
RMM:  26    -0.104253280692E+03    0.52035E-04    0.97665E-03  6692  -0.112E-03    0.568E-03
RMM:  27    -0.104252416162E+03    0.86453E-03    0.25149E-03  6985   0.635E-04    0.955E-03
RMM:  28    -0.104252227166E+03    0.18900E-03    0.23560E-02  6812  -0.291E-03    0.966E-03
RMM:  29    -0.104253254337E+03   -0.10272E-02    0.58915E-03  7604  -0.139E-04    0.211E-02
RMM:  30    -0.104263287196E+03   -0.10033E-01   -0.11234E-01  8486   0.570E-03    0.892E-02
RMM:  31    -0.104285004567E+03   -0.21717E-01   -0.74812E-01 10234   0.492E-02    0.103E-01
RMM:  32    -0.104284673074E+03    0.33149E-03   -0.92113E-01 10676   0.706E-02    0.136E-01
RMM:  33    -0.104271405552E+03    0.13268E-01   -0.15716E+00 10928   0.122E-01    0.136E-01
RMM:  34    -0.104378523115E+03   -0.10712E+00   -0.11813E+00 11254   0.103E-01    0.371E-01
RMM:  35    -0.104436750135E+03   -0.58227E-01   -0.29917E+00 13303   0.242E-01    0.472E-01
RMM:  36    -0.104346906668E+03    0.89843E-01   -0.38470E+00 14054   0.315E-01    0.351E-01
RMM:  37    -0.104367187835E+03   -0.20281E-01   -0.44249E+00 13187   0.333E-01    0.376E-01
RMM:  38    -0.104323368138E+03    0.43820E-01   -0.51755E+00 12983   0.370E-01    0.205E-01
RMM:  39    -0.104342077794E+03   -0.18710E-01   -0.29306E+00 12563   0.215E-01    0.308E-01
RMM:  40    -0.104309151450E+03    0.32926E-01   -0.41592E+00 12882   0.311E-01    0.179E-01
RMM:  41    -0.104300773016E+03    0.83784E-02   -0.25680E+00 12340   0.190E-01    0.134E-01
RMM:  42    -0.104310947137E+03   -0.10174E-01   -0.17483E+00 12365   0.135E-01    0.162E-01
RMM:  43    -0.104311228529E+03   -0.28139E-03   -0.22683E+00 10705   0.160E-01    0.239E-01
RMM:  44    -0.104330715214E+03   -0.19487E-01   -0.32503E+00 11586   0.240E-01    0.193E-01
RMM:  45    -0.104308950474E+03    0.21765E-01   -0.29470E+00 11987   0.208E-01    0.159E-01
RMM:  46    -0.104288940431E+03    0.20010E-01   -0.18201E+00 11558   0.143E-01    0.169E-01
RMM:  47    -0.104265193532E+03    0.23747E-01   -0.17838E+00 10913   0.140E-01    0.147E-01
RMM:  48    -0.104329732521E+03   -0.64539E-01   -0.16786E+00 10609   0.133E-01    0.282E-01
RMM:  49    -0.104318602580E+03    0.11130E-01   -0.44771E+00 12670   0.302E-01    0.236E-01
RMM:  50    -0.104387495544E+03   -0.68893E-01   -0.36754E+00 12478   0.253E-01    0.359E-01
RMM:  51    -0.104339149627E+03    0.48346E-01   -0.58459E+00 12717   0.396E-01    0.240E-01
RMM:  52    -0.104408321657E+03   -0.69172E-01   -0.31400E+00 12846   0.233E-01    0.395E-01
RMM:  53    -0.104409032084E+03   -0.71043E-03   -0.62510E+00 12813   0.429E-01    0.361E-01
RMM:  54    -0.104392285217E+03    0.16747E-01   -0.44576E+00 12789   0.348E-01    0.348E-01
RMM:  55    -0.104360062058E+03    0.32223E-01   -0.58605E+00 12852   0.385E-01    0.269E-01
RMM:  56    -0.104366785979E+03   -0.67239E-02   -0.38980E+00 12705   0.274E-01    0.246E-01
RMM:  57    -0.104301367018E+03    0.65419E-01   -0.28835E+00 12214   0.221E-01    0.187E-01
RMM:  58    -0.104278761199E+03    0.22606E-01   -0.23426E+00 11410   0.176E-01    0.167E-01
RMM:  59    -0.104329737252E+03   -0.50976E-01   -0.27818E+00 10594   0.188E-01    0.221E-01
RMM:  60    -0.104326748096E+03    0.29892E-02   -0.33751E+00 10965   0.235E-01    0.171E-01
RMM:  61    -0.104278942748E+03    0.47805E-01   -0.23199E+00 10726   0.171E-01    0.878E-02
RMM:  62    -0.104271782950E+03    0.71598E-02   -0.14194E+00 10893   0.925E-02    0.102E-01
RMM:  63    -0.104285488635E+03   -0.13706E-01   -0.16597E+00 10810   0.112E-01    0.198E-01
RMM:  64    -0.104374537089E+03   -0.89048E-01   -0.32520E+00 12174   0.224E-01    0.281E-01
RMM:  65    -0.104346394184E+03    0.28143E-01   -0.43080E+00 12475   0.309E-01    0.341E-01
RMM:  66    -0.104326739649E+03    0.19655E-01   -0.51121E+00 12409   0.361E-01    0.236E-01
RMM:  67    -0.104306280814E+03    0.20459E-01   -0.39849E+00 11594   0.266E-01    0.209E-01
RMM:  68    -0.104276148008E+03    0.30133E-01   -0.37914E+00 11304   0.242E-01    0.121E-01
RMM:  69    -0.104290157774E+03   -0.14010E-01   -0.19505E+00 10858   0.128E-01    0.202E-01
RMM:  70    -0.104304859219E+03   -0.14701E-01   -0.29783E+00 10748   0.210E-01    0.188E-01
RMM:  71    -0.104337549097E+03   -0.32690E-01   -0.29308E+00 11803   0.205E-01    0.235E-01
RMM:  72    -0.104308041632E+03    0.29507E-01   -0.41111E+00 14626   0.279E-01    0.199E-01
RMM:  73    -0.104341251433E+03   -0.33210E-01   -0.24589E+00 13646   0.192E-01    0.222E-01
RMM:  74    -0.104312393965E+03    0.28857E-01   -0.40429E+00 11778   0.263E-01    0.248E-01
RMM:  75    -0.104280411153E+03    0.31983E-01   -0.36037E+00 13293   0.257E-01    0.128E-01
RMM:  76    -0.104300169604E+03   -0.19758E-01   -0.18328E+00 13108   0.124E-01    0.220E-01
RMM:  77    -0.104336513912E+03   -0.36344E-01   -0.27259E+00 13836   0.209E-01    0.304E-01
RMM:  78    -0.104356278148E+03   -0.19764E-01   -0.41626E+00 13214   0.311E-01    0.311E-01
RMM:  79    -0.104299533451E+03    0.56745E-01   -0.48234E+00 12521   0.328E-01    0.205E-01
RMM:  80    -0.104319755777E+03   -0.20222E-01   -0.27360E+00 13034   0.202E-01
  19 F= -.10431976E+03 E0= -.10432415E+03  d E =-.994636E-01
       N       E                     dE             d eps       ncg     rms          rms(c)
DAV:   1    -0.104252579439E+03    0.46954E-01   -0.32973E+00 14336   0.123E+00    0.496E-02
RMM:   2    -0.104253760113E+03   -0.11807E-02   -0.12195E-02 14582   0.193E-01    0.247E-02
RMM:   3    -0.104253793068E+03   -0.32955E-04   -0.11686E-03 17414   0.708E-02    0.257E-02
RMM:   4    -0.104253758889E+03    0.34180E-04   -0.30317E-05 14847   0.104E-02    0.130E-02
RMM:   5    -0.104253757899E+03    0.98951E-06   -0.63328E-06 14337   0.435E-03
  20 F= -.10425376E+03 E0= -.10426183E+03  d E =-.334658E-01
