Tetradymite Slab                        
           1
     3.854579    0.000000   -2.225442
     0.000000   31.937661    0.000000
     0.000000    0.000000   17.803536
   Bi   Te
  12  18
Direct configuration=     1
   0.66666700  0.73085463  0.04166662
   0.66666700  0.93581137  0.04166662
   0.00000000  0.39752163  0.20833338
   0.00000000  0.60247837  0.20833338
   0.33333300  0.06418863  0.12500012
   0.33333300  0.26914537  0.12500012
   0.66666700  0.73085463  0.29166662
   0.66666700  0.93581137  0.29166662
   0.00000000  0.39752163  0.45833338
   0.00000000  0.60247837  0.45833338
   0.33333300  0.06418863  0.37500012
   0.33333300  0.26914537  0.37500012
   0.33333300  0.88184721  0.12500012
   0.00000000  0.00000000  0.20833338
   0.00000000  0.78481979  0.20833338
   0.66666700  0.54851321  0.04166662
   0.33333300  0.66666700  0.12500012
   0.33333300  0.45148679  0.12500012
   0.00000000  0.21518021  0.20833338
   0.66666700  0.33333300  0.04166662
   0.66666700  0.11815279  0.04166662
   0.33333300  0.88184721  0.37500012
   0.00000000  0.00000000  0.45833338
   0.00000000  0.78481979  0.45833338
   0.66666700  0.54851321  0.29166662
   0.33333300  0.66666700  0.37500012
   0.33333300  0.45148679  0.37500012
   0.00000000  0.21518021  0.45833338
   0.66666700  0.33333300  0.29166662
   0.66666700  0.11815279  0.29166662
Direct configuration=     2
   0.67495689  0.73035776  0.04581157
   0.67333858  0.93522602  0.04500241
  -0.00812267  0.39754311  0.20427204
  -0.00490075  0.60169932  0.20588300
   0.33333300  0.06418863  0.12500012
   0.33172360  0.27041777  0.12419543
   0.67154113  0.73164682  0.29410369
   0.66666700  0.93581137  0.29166662
  -0.00665094  0.39813384  0.45500791
  -0.00850316  0.60296114  0.45408179
   0.33484376  0.06288872  0.37575550
   0.33478902  0.26715200  0.37572814
   0.32800284  0.88265811  0.12233504
  -0.00184815 -0.00043760  0.20740930
   0.00000000  0.78481979  0.20833338
   0.67139390  0.54866332  0.04403008
   0.32787572  0.66760164  0.12227148
   0.33500676  0.45146370  0.12583701
   0.00247438  0.21512550  0.20957056
   0.66666700  0.33333300  0.04166662
   0.66883414  0.11724065  0.04275019
   0.33172716  0.88185179  0.37419720
   0.00000000  0.00000000  0.45833338
  -0.00470269  0.78466856  0.45598203
   0.67164572  0.54878174  0.29415599
   0.33880642  0.66575021  0.37773683
   0.33873032  0.45065784  0.37769878
  -0.00209296  0.21610390  0.45728689
   0.66849315  0.33377904  0.29257970
   0.66666700  0.11815279  0.29166662
Direct configuration=     3
   0.69982657  0.72886715  0.05824641
   0.69335330  0.93346997  0.05500978
  -0.03249069  0.39760754  0.19208803
  -0.01960300  0.59936217  0.19853187
   0.33333300  0.06418863  0.12500012
   0.32689541  0.27423496  0.12178133
   0.68616353  0.73402338  0.30141489
   0.66666700  0.93581137  0.29166662
  -0.02660375  0.39997047  0.44503150
  -0.03401264  0.60440945  0.44132705
   0.33937604  0.05898898  0.37802164
   0.33915709  0.26117187  0.37791217
   0.31201234  0.88509080  0.11433980
  -0.00739258 -0.00175040  0.20463708
   0.00000000  0.78481979  0.20833338
   0.68557460  0.54911364  0.05112043
   0.31150387  0.67040555  0.11408556
   0.34002805  0.45139444  0.12834765
   0.00989752  0.21496139  0.21328213
   0.66666700  0.33333300  0.04166662
   0.67533554  0.11450423  0.04600090
   0.32690964  0.88186552  0.37178844
   0.00000000  0.00000000  0.45833338
  -0.01881075  0.78421488  0.44892800
   0.68658189  0.54958732  0.30162407
   0.35522666  0.66299983  0.38594696
   0.35492227  0.44817101  0.38579476
  -0.00837185  0.21887497  0.45414745
   0.67397159  0.33511716  0.29531892
   0.66666700  0.11815279  0.29166662
Direct configuration=     4
   0.69614760  0.72908765  0.05640693
   0.69039252  0.93372974  0.05352939
  -0.02888594  0.39759801  0.19389041
  -0.01742810  0.59970791  0.19961933
   0.33333300  0.06418863  0.12500012
   0.32760964  0.27367028  0.12213845
   0.68400044  0.73367181  0.30033334
   0.66666700  0.93581137  0.29166662
  -0.02365213  0.39969878  0.44650731
  -0.03023903  0.60419520  0.44321386
   0.33870558  0.05956587  0.37768641
   0.33851092  0.26205651  0.37758909
   0.31437781  0.88473093  0.11552253
  -0.00657239 -0.00155620  0.20504718
   0.00000000  0.78481979  0.20833338
   0.68347685  0.54904703  0.05007155
   0.31392576  0.66999077  0.11529650
   0.33928525  0.45140469  0.12797625
   0.00879942  0.21498566  0.21273308
   0.66666700  0.33333300  0.04166662
   0.67437379  0.11490903  0.04552002
   0.32762229  0.88186349  0.37214477
   0.00000000  0.00000000  0.45833338
  -0.01672374  0.78428200  0.44997150
   0.68437238  0.54946815  0.30051932
   0.35279762  0.66340669  0.38473243
   0.35252700  0.44853888  0.38459712
  -0.00744302  0.21846505  0.45461187
   0.67316116  0.33491921  0.29491371
   0.66666700  0.11815279  0.29166662
Direct configuration=     5
   0.70440111  0.72810914  0.06053368
   0.69186534  0.93516198  0.05426580
  -0.03616683  0.39703689  0.19024996
  -0.02287424  0.59818757  0.19689626
   0.33333300  0.06418863  0.12500012
   0.32895923  0.27515985  0.12281324
   0.68941876  0.73492361  0.30304250
   0.66666700  0.93581137  0.29166662
  -0.02683346  0.39811204  0.44491665
  -0.03321183  0.60600618  0.44172746
   0.33832858  0.05800950  0.37749791
   0.33394594  0.26225784  0.37530660
   0.31368586  0.88372203  0.11517656
  -0.00781706 -0.00226485  0.20442484
   0.00000000  0.78481979  0.20833338
   0.68804967  0.54915247  0.05235796
   0.30537235  0.67064571  0.11101980
   0.33963451  0.45210369  0.12815088
   0.00749157  0.21511181  0.21207916
   0.66666700  0.33333300  0.04166662
   0.67570094  0.11390524  0.04618360
   0.32423047  0.88198517  0.37044886
   0.00000000  0.00000000  0.45833338
  -0.02019316  0.78435350  0.44823679
   0.68217221  0.54878513  0.29941923
   0.36112634  0.66285264  0.38889679
   0.35204520  0.44944808  0.38435623
  -0.00184636  0.21725276  0.45741019
   0.67476211  0.33535580  0.29571418
   0.66666700  0.11815279  0.29166662
Direct configuration=     6
   0.71065574  0.72736761  0.06366099
   0.69298147  0.93624736  0.05482386
  -0.04168440  0.39661167  0.18749118
  -0.02700140  0.59703543  0.19483267
   0.33333300  0.06418863  0.12500012
   0.32998196  0.27628867  0.12332461
   0.69352485  0.73587224  0.30509555
   0.66666700  0.93581137  0.29166662
  -0.02924431  0.39690958  0.44371122
  -0.03546466  0.60737857  0.44060105
   0.33804288  0.05683006  0.37735507
   0.33048653  0.26241041  0.37357689
   0.31316150  0.88295746  0.11491437
  -0.00876030 -0.00280187  0.20395323
   0.00000000  0.78481979  0.20833338
   0.69151502  0.54923237  0.05409063
   0.29889045  0.67114203  0.10777885
   0.33989919  0.45263340  0.12828322
   0.00650047  0.21520740  0.21158361
   0.66666700  0.33333300  0.04166662
   0.67670668  0.11314456  0.04668646
   0.32166009  0.88207738  0.36916367
   0.00000000  0.00000000  0.45833338
  -0.02282234  0.78440769  0.44692220
   0.68050488  0.54826753  0.29858556
   0.36743797  0.66243277  0.39205261
   0.35168009  0.45013708  0.38417367
   0.00239487  0.21633408  0.45953081
   0.67597534  0.33568666  0.29632079
   0.66666700  0.11815279  0.29166662
Direct configuration=     7
   0.70899390  0.72756463  0.06283007
   0.69268492  0.93595898  0.05467558
  -0.04021839  0.39672465  0.18822418
  -0.02590482  0.59734155  0.19538096
   0.33333300  0.06418863  0.12500012
   0.32971023  0.27598875  0.12318874
   0.69243387  0.73562019  0.30455006
   0.66666700  0.93581137  0.29166662
  -0.02860375  0.39722907  0.44403150
  -0.03486609  0.60701393  0.44090033
   0.33811879  0.05714343  0.37739302
   0.33140569  0.26236987  0.37403647
   0.31330082  0.88316061  0.11498403
  -0.00850968 -0.00265918  0.20407853
   0.00000000  0.78481979  0.20833338
   0.69059428  0.54921114  0.05363027
   0.30061268  0.67101016  0.10863996
   0.33982886  0.45249266  0.12824806
   0.00676380  0.21518200  0.21171528
   0.66666700  0.33333300  0.04166662
   0.67643946  0.11334667  0.04655285
   0.32234303  0.88205288  0.36950514
   0.00000000  0.00000000  0.45833338
  -0.02212378  0.78439330  0.44727149
   0.68094788  0.54840505  0.29880707
   0.36576098  0.66254433  0.39121412
   0.35177710  0.44995402  0.38422218
   0.00126798  0.21657817  0.45896737
   0.67565299  0.33559875  0.29615962
   0.66666700  0.11815279  0.29166662
Direct configuration=     8
   0.70892792  0.72742728  0.06279709
   0.69240749  0.93683425  0.05453687
  -0.04313943  0.39687153  0.18676366
  -0.02179559  0.59699968  0.19743558
   0.33333300  0.06418863  0.12500012
   0.33304259  0.27660227  0.12485492
   0.69159022  0.73591690  0.30412823
   0.66666700  0.93581137  0.29166662
  -0.03036578  0.39638823  0.44315049
  -0.03400096  0.60722155  0.44133290
   0.33607757  0.05640126  0.37637241
   0.33099863  0.26209895  0.37383294
   0.31357284  0.88263205  0.11512004
  -0.00913198 -0.00310027  0.20376738
   0.00000000  0.78481979  0.20833338
   0.68542829  0.54809907  0.05104727
   0.29643403  0.67030614  0.10655064
   0.33978290  0.45310896  0.12822507
   0.00287209  0.21560381  0.20976942
   0.66666700  0.33333300  0.04166662
   0.67541634  0.11292075  0.04604129
   0.31875189  0.88213141  0.36770957
   0.00000000  0.00000000  0.45833338
  -0.01800003  0.78528681  0.44933336
   0.67869945  0.54803615  0.29768285
   0.36999899  0.66339686  0.39333312
   0.35028507  0.45029120  0.38347616
   0.00370790  0.21600878  0.46018732
   0.67533308  0.33569144  0.29599967
   0.66666700  0.11815279  0.29166662
Direct configuration=     9
   0.70891968  0.72741013  0.06279297
   0.69237285  0.93694354  0.05451955
  -0.04350414  0.39688987  0.18658131
  -0.02128252  0.59695700  0.19769211
   0.33333300  0.06418863  0.12500012
   0.33345866  0.27667887  0.12506295
   0.69148488  0.73595394  0.30407557
   0.66666700  0.93581137  0.29166662
  -0.03058578  0.39628325  0.44304049
  -0.03389294  0.60724747  0.44138690
   0.33582271  0.05630859  0.37624498
   0.33094780  0.26206513  0.37380753
   0.31360680  0.88256605  0.11513703
  -0.00920968 -0.00315534  0.20372853
   0.00000000  0.78481979  0.20833338
   0.68478328  0.54796022  0.05072476
   0.29591229  0.67021823  0.10628977
   0.33977716  0.45318590  0.12822221
   0.00238618  0.21565648  0.20952647
   0.66666700  0.33333300  0.04166662
   0.67528859  0.11286757  0.04597742
   0.31830351  0.88214122  0.36748538
   0.00000000  0.00000000  0.45833338
  -0.01748515  0.78539837  0.44959080
   0.67841871  0.54799009  0.29754248
   0.37052814  0.66350331  0.39359769
   0.35009878  0.45033330  0.38338301
   0.00401254  0.21593769  0.46033964
   0.67529314  0.33570301  0.29597970
   0.66666700  0.11815279  0.29166662
Direct configuration=    10
   0.70890321  0.72737583  0.06278473
   0.69230357  0.93716210  0.05448491
  -0.04423356  0.39692655  0.18621659
  -0.02025639  0.59687163  0.19820518
   0.33333300  0.06418863  0.12500012
   0.33429080  0.27683208  0.12547902
   0.69127421  0.73602803  0.30397023
   0.66666700  0.93581137  0.29166662
  -0.03102578  0.39607328  0.44282048
  -0.03367691  0.60729931  0.44149492
   0.33531299  0.05612326  0.37599012
   0.33084616  0.26199747  0.37375670
   0.31367473  0.88243406  0.11517099
  -0.00936508 -0.00326549  0.20365084
   0.00000000  0.78481979  0.20833338
   0.68349325  0.54768252  0.05007975
   0.29486883  0.67004243  0.10576804
   0.33976568  0.45333980  0.12821647
   0.00141436  0.21576181  0.20904056
   0.66666700  0.33333300  0.04166662
   0.67503311  0.11276121  0.04584968
   0.31740675  0.88216083  0.36703700
   0.00000000  0.00000000  0.45833338
  -0.01645540  0.78562149  0.45010568
   0.67785725  0.54789797  0.29726175
   0.37158643  0.66371620  0.39412684
   0.34972620  0.45041750  0.38319672
   0.00462182  0.21579551  0.46064429
   0.67521326  0.33572616  0.29593975
   0.66666700  0.11815279  0.29166662
Direct configuration=    11
   0.70887026  0.72730723  0.06276825
   0.69216502  0.93759924  0.05441563
  -0.04569241  0.39699991  0.18548717
  -0.01820412  0.59670089  0.19923132
   0.33333300  0.06418863  0.12500012
   0.33595507  0.27713849  0.12631116
   0.69085287  0.73617621  0.30375956
   0.66666700  0.93581137  0.29166662
  -0.03190578  0.39565334  0.44238048
  -0.03324484  0.60740300  0.44171096
   0.33429355  0.05575259  0.37548040
   0.33064286  0.26186217  0.37365505
   0.31381058  0.88217008  0.11523892
  -0.00967587 -0.00348578  0.20349544
   0.00000000  0.78481979  0.20833338
   0.68091321  0.54712712  0.04878973
   0.29278189  0.66969082  0.10472457
   0.33974273  0.45364760  0.12820499
  -0.00052927  0.21597247  0.20806874
   0.66666700  0.33333300  0.04166662
   0.67452213  0.11254849  0.04559419
   0.31561324  0.88220006  0.36614024
   0.00000000  0.00000000  0.45833338
  -0.01439588  0.78606773  0.45113543
   0.67673431  0.54771373  0.29670028
   0.37370301  0.66414197  0.39518513
   0.34898104  0.45058590  0.38282414
   0.00584038  0.21551114  0.46125357
   0.67505349  0.33577245  0.29585987
   0.66666700  0.11815279  0.29166662
Direct configuration=    12
   0.70702417  0.72719114  0.06184521
   0.69214458  0.93784034  0.05440541
  -0.04819994  0.39744622  0.18423341
  -0.01923611  0.59545241  0.19871532
   0.33333300  0.06418863  0.12500012
   0.34035749  0.27779854  0.12851237
   0.69357359  0.73707718  0.30511992
   0.66666700  0.93581137  0.29166662
  -0.03428612  0.39548113  0.44119032
  -0.03253329  0.60731834  0.44206673
   0.33094003  0.05508755  0.37380364
   0.33170960  0.26094074  0.37418842
   0.31316450  0.88230535  0.11491588
  -0.01052207 -0.00383087  0.20307234
   0.00000000  0.78481979  0.20833338
   0.68067230  0.54670237  0.04866928
   0.28855746  0.66853982  0.10261235
   0.33948674  0.45457737  0.12807699
  -0.00508248  0.21651735  0.20579214
   0.66666700  0.33333300  0.04166662
   0.67239705  0.11210354  0.04453165
   0.31142051  0.88198136  0.36404388
   0.00000000  0.00000000  0.45833338
  -0.01300914  0.78652020  0.45182880
   0.67506115  0.54744523  0.29586370
   0.37836438  0.66526626  0.39751581
   0.34794226  0.45029612  0.38230475
   0.00682761  0.21522974  0.46174718
   0.67380492  0.33573204  0.29523559
   0.66666700  0.11815279  0.29166662
Direct configuration=    13
   0.70301278  0.72693887  0.05983951
   0.69210016  0.93836422  0.05438321
  -0.05364860  0.39841601  0.18150907
  -0.02147854  0.59273957  0.19759411
   0.33333300  0.06418863  0.12500012
   0.34992360  0.27923278  0.13329542
   0.69948550  0.73903491  0.30807588
   0.66666700  0.93581137  0.29166662
  -0.03945839  0.39510695  0.43860418
  -0.03098717  0.60713437  0.44283979
   0.32365311  0.05364245  0.37016018
   0.33402753  0.25893854  0.37534739
   0.31176061  0.88259927  0.11421393
  -0.01236078 -0.00458073  0.20215299
   0.00000000  0.78481979  0.20833338
   0.68014883  0.54577944  0.04840754
   0.27937811  0.66603877  0.09802268
   0.33893049  0.45659770  0.12779887
  -0.01497623  0.21770131  0.20084526
   0.66666700  0.33333300  0.04166662
   0.66777941  0.11113670  0.04222283
   0.30231006  0.88150615  0.35948866
   0.00000000  0.00000000  0.45833338
  -0.00999586  0.78750339  0.45333544
   0.67142551  0.54686178  0.29404588
   0.38849316  0.66770924  0.40258020
   0.34568507  0.44966645  0.38117616
   0.00897277  0.21461829  0.46281976
   0.67109189  0.33564423  0.29387907
   0.66666700  0.11815279  0.29166662
Direct configuration=    14
   0.70330696  0.72587139  0.05998661
   0.68999315  0.93764536  0.05332970
  -0.05582783  0.39935081  0.18041946
  -0.02444133  0.59217742  0.19611271
   0.33333300  0.06418863  0.12500012
   0.35382732  0.28055845  0.13524728
   0.70182713  0.73946423  0.30924669
   0.66666700  0.93581137  0.29166662
  -0.04102278  0.39548401  0.43782199
  -0.03413370  0.60763108  0.44126652
   0.31797646  0.05303542  0.36732185
   0.33368104  0.25779228  0.37517415
   0.31029473  0.88346897  0.11348099
  -0.01325842 -0.00438261  0.20170417
   0.00000000  0.78481979  0.20833338
   0.67961789  0.54509056  0.04814207
   0.27255851  0.66547879  0.09461288
   0.33852821  0.45796797  0.12759773
  -0.01822335  0.21773299  0.19922170
   0.66666700  0.33333300  0.04166662
   0.66398300  0.11048945  0.04032462
   0.29781289  0.88045055  0.35724007
   0.00000000  0.00000000  0.45833338
  -0.00699538  0.78830473  0.45483568
   0.67473622  0.54613512  0.29570123
   0.39637035  0.66801415  0.40651880
   0.34390296  0.44907826  0.38028511
   0.00975281  0.21401789  0.46320978
   0.67021065  0.33545906  0.29343845
   0.66666700  0.11815279  0.29166662
Direct configuration=    15
   0.70362706  0.72470988  0.06014665
   0.68770055  0.93686317  0.05218340
  -0.05819901  0.40036795  0.17923387
  -0.02766510  0.59156576  0.19450082
   0.33333300  0.06418863  0.12500012
   0.35807489  0.28200088  0.13737107
   0.70437501  0.73993137  0.31052063
   0.66666700  0.93581137  0.29166662
  -0.04272496  0.39589428  0.43697090
  -0.03755739  0.60817153  0.43955468
   0.31179979  0.05237493  0.36423352
   0.33330404  0.25654505  0.37498565
   0.30869972  0.88441526  0.11268348
  -0.01423513 -0.00416704  0.20121581
   0.00000000  0.78481979  0.20833338
   0.67904019  0.54434101  0.04785322
   0.26513822  0.66486948  0.09090273
   0.33809051  0.45945895  0.12737888
  -0.02175648  0.21776745  0.19745514
   0.66666700  0.33333300  0.04166662
   0.65985218  0.10978520  0.03825922
   0.29291960  0.87930197  0.35479343
   0.00000000  0.00000000  0.45833338
  -0.00373062  0.78917665  0.45646807
   0.67833855  0.54534444  0.29750240
   0.40494139  0.66834592  0.41080432
   0.34196389  0.44843827  0.37931557
   0.01060157  0.21336460  0.46363416
   0.66925180  0.33525757  0.29295902
   0.66666700  0.11815279  0.29166662
Direct configuration=    16
   0.70480458  0.72424046  0.06073541
   0.68229826  0.93680364  0.04948225
  -0.05888129  0.40145270  0.17889273
  -0.02742293  0.59171425  0.19462191
   0.33333300  0.06418863  0.12500012
   0.35673774  0.28261904  0.13670250
   0.70658825  0.73989763  0.31162725
   0.66666700  0.93581137  0.29166662
  -0.04143332  0.39565265  0.43761672
  -0.03809863  0.60821017  0.43928406
   0.30738702  0.05223639  0.36202714
   0.33002797  0.25601623  0.37334761
   0.30921271  0.88440083  0.11293998
  -0.01680371 -0.00411169  0.19993152
   0.00000000  0.78481979  0.20833338
   0.67647653  0.54332405  0.04657139
   0.26012505  0.66403683  0.08839615
   0.33749717  0.46057091  0.12708221
  -0.02193156  0.21721740  0.19736760
   0.66666700  0.33333300  0.04166662
   0.65615271  0.10909862  0.03640948
   0.28911106  0.87794786  0.35288916
   0.00000000  0.00000000  0.45833338
  -0.00236797  0.78975011  0.45714939
   0.68122100  0.54499374  0.29894362
   0.41039343  0.66870374  0.41353034
   0.33815448  0.44885103  0.37741086
   0.01093063  0.21227529  0.46379869
   0.67414551  0.33583236  0.29540588
   0.66666700  0.11815279  0.29166662
Direct configuration=    17
   0.70568540  0.72388931  0.06117583
   0.67825716  0.93675911  0.04746171
  -0.05939166  0.40226413  0.17863754
  -0.02724179  0.59182533  0.19471248
   0.33333300  0.06418863  0.12500012
   0.35573751  0.28308144  0.13620238
   0.70824383  0.73987240  0.31245504
   0.66666700  0.93581137  0.29166662
  -0.04046713  0.39547190  0.43809981
  -0.03850349  0.60823907  0.43908163
   0.30408612  0.05213275  0.36037669
   0.32757737  0.25562065  0.37212231
   0.30959645  0.88439003  0.11313185
  -0.01872509 -0.00407029  0.19897083
   0.00000000  0.78481979  0.20833338
   0.67455882  0.54256332  0.04561254
   0.25637503  0.66341398  0.08652114
   0.33705334  0.46140269  0.12686029
  -0.02206253  0.21680593  0.19730211
   0.66666700  0.33333300  0.04166662
   0.65338539  0.10858504  0.03502582
   0.28626215  0.87693494  0.35146470
   0.00000000  0.00000000  0.45833338
  -0.00134866  0.79017908  0.45765904
   0.68337716  0.54473141  0.30002171
   0.41447174  0.66897139  0.41556949
   0.33530491  0.44915979  0.37598608
   0.01117678  0.21146044  0.46392177
   0.67780618  0.33626232  0.29723621
   0.66666700  0.11815279  0.29166662
Direct configuration=    18
   0.70532424  0.72403329  0.06099524
   0.67991413  0.93677737  0.04829019
  -0.05918240  0.40193142  0.17874218
  -0.02731606  0.59177978  0.19467534
   0.33333300  0.06418863  0.12500012
   0.35614764  0.28289184  0.13640744
   0.70756500  0.73988275  0.31211562
   0.66666700  0.93581137  0.29166662
  -0.04086329  0.39554601  0.43790173
  -0.03833749  0.60822722  0.43916463
   0.30543959  0.05217524  0.36105342
   0.32858219  0.25578285  0.37262472
   0.30943911  0.88439445  0.11305318
  -0.01793727 -0.00408726  0.19936474
   0.00000000  0.78481979  0.20833338
   0.67534514  0.54287524  0.04600569
   0.25791265  0.66366937  0.08728995
   0.33723532  0.46106163  0.12695129
  -0.02200883  0.21697465  0.19732896
   0.66666700  0.33333300  0.04166662
   0.65452007  0.10879562  0.03559316
   0.28743029  0.87735027  0.35204877
   0.00000000  0.00000000  0.45833338
  -0.00176661  0.79000319  0.45745007
   0.68249307  0.54483897  0.29957966
   0.41279951  0.66886165  0.41473338
   0.33647332  0.44903319  0.37657028
   0.01107585  0.21179455  0.46387130
   0.67630520  0.33608603  0.29648572
   0.66666700  0.11815279  0.29166662
Direct configuration=    19
   0.70673979  0.72401528  0.06170302
   0.67436476  0.93670055  0.04551550
  -0.05794891  0.40305302  0.17935892
  -0.03068132  0.59107691  0.19299272
   0.33333300  0.06418863  0.12500012
   0.35429668  0.28294521  0.13548196
   0.71156433  0.74002454  0.31411529
   0.66666700  0.93581137  0.29166662
  -0.03815455  0.39605492  0.43925610
  -0.03509171  0.60801378  0.44078752
   0.30323820  0.05234858  0.35995273
   0.32672280  0.25505059  0.37169502
   0.30966131  0.88431812  0.11316428
  -0.02259394 -0.00466392  0.19703640
   0.00000000  0.78481979  0.20833338
   0.67842193  0.54261808  0.04754409
   0.25425980  0.66239167  0.08546353
   0.33612241  0.46217644  0.12639483
  -0.02204422  0.21648258  0.19731126
   0.66666700  0.33333300  0.04166662
   0.65076271  0.10787733  0.03371448
   0.28280816  0.87597912  0.34973771
   0.00000000  0.00000000  0.45833338
  -0.00341394  0.79015523  0.45662641
   0.68234993  0.54497546  0.29950809
   0.41623224  0.66942187  0.41644974
   0.33296763  0.44945489  0.37481744
   0.00825760  0.21081768  0.46246217
   0.68086234  0.33650675  0.29876430
   0.66666700  0.11815279  0.29166662
Direct configuration=    20
   0.70661111  0.72401692  0.06163868
   0.67486922  0.93670754  0.04576774
  -0.05806104  0.40295106  0.17930285
  -0.03037540  0.59114080  0.19314567
   0.33333300  0.06418863  0.12500012
   0.35446494  0.28294035  0.13556610
   0.71120077  0.74001165  0.31393351
   0.66666700  0.93581137  0.29166662
  -0.03840079  0.39600866  0.43913298
  -0.03538677  0.60803318  0.44063999
   0.30343832  0.05233283  0.36005279
   0.32689183  0.25511715  0.37177954
   0.30964111  0.88432506  0.11315418
  -0.02217063 -0.00461150  0.19724806
   0.00000000  0.78481979  0.20833338
   0.67814223  0.54264146  0.04740424
   0.25459187  0.66250782  0.08562956
   0.33622358  0.46207510  0.12644542
  -0.02204100  0.21652731  0.19731287
   0.66666700  0.33333300  0.04166662
   0.65110428  0.10796081  0.03388526
   0.28322834  0.87610376  0.34994779
   0.00000000  0.00000000  0.45833338
  -0.00326419  0.79014140  0.45670128
   0.68236295  0.54496305  0.29951460
   0.41592019  0.66937094  0.41629372
   0.33328632  0.44941656  0.37497678
   0.00851379  0.21090648  0.46259027
   0.68044807  0.33646851  0.29855716
   0.66666700  0.11815279  0.29166662
