  60  60   1   0
  0.6963547E+02  0.4028518E-09  0.1283696E-08  0.8079314E-08  0.5000000E-15
  1.000000000000000E-004
  CAR 
 Tetradymite Slab                        
      6.91147978    -17.18856488  301     -1.19882920      1.00000000
    -17.189  0.0000E+00  0.0000E+00
    -17.108  0.0000E+00  0.0000E+00
    -17.028  0.0000E+00  0.0000E+00
    -16.948  0.0000E+00  0.0000E+00
    -16.867 -0.1440E-31 -0.1157E-32
    -16.787 -0.1938E-28 -0.1558E-29
    -16.707 -0.1010E-25 -0.8127E-27
    -16.626 -0.3813E-23 -0.3072E-24
    -16.546 -0.1045E-20 -0.8424E-22
    -16.466 -0.2077E-18 -0.1677E-19
    -16.385 -0.2995E-16 -0.2423E-17
    -16.305 -0.3043E-14 -0.2468E-15
    -16.225 -0.2296E-12 -0.1869E-13
    -16.144 -0.1256E-10 -0.1028E-11
    -16.064 -0.4978E-09 -0.4101E-10
    -15.984 -0.1425E-07 -0.1186E-08
    -15.903 -0.2945E-06 -0.2484E-07
    -15.823 -0.4375E-05 -0.3763E-06
    -15.743 -0.4654E-04 -0.4115E-05
    -15.662 -0.3519E-03 -0.3239E-04
    -15.582 -0.1867E-02 -0.1824E-03
    -15.502 -0.6767E-02 -0.7260E-03
    -15.421 -0.1562E-01 -0.1981E-02
    -15.341 -0.1681E-01 -0.3331E-02
    -15.261  0.2285E-01 -0.1496E-02
    -15.180  0.1413E+00  0.9859E-02
    -15.100  0.3397E+00  0.3714E-01
    -15.020  0.5627E+00  0.8235E-01
    -14.939  0.7389E+00  0.1417E+00
    -14.859  0.8450E+00  0.2096E+00
    -14.779  0.9185E+00  0.2834E+00
    -14.698  0.9942E+00  0.3632E+00
    -14.618  0.1059E+01  0.4483E+00
    -14.538  0.1084E+01  0.5354E+00
    -14.457  0.1079E+01  0.6221E+00
    -14.377  0.1086E+01  0.7093E+00
    -14.297  0.1139E+01  0.8008E+00
    -14.216  0.1236E+01  0.9001E+00
    -14.136  0.1360E+01  0.1009E+01
    -14.056  0.1497E+01  0.1130E+01
    -13.975  0.1638E+01  0.1261E+01
    -13.895  0.1785E+01  0.1405E+01
    -13.815  0.1982E+01  0.1564E+01
    -13.734  0.2310E+01  0.1749E+01
    -13.654  0.2838E+01  0.1977E+01
    -13.574  0.3508E+01  0.2259E+01
    -13.493  0.4040E+01  0.2584E+01
    -13.413  0.4083E+01  0.2912E+01
    -13.333  0.3507E+01  0.3193E+01
    -13.252  0.2523E+01  0.3396E+01
    -13.172  0.1504E+01  0.3517E+01
    -13.092  0.7306E+00  0.3576E+01
    -13.011  0.2807E+00  0.3598E+01
    -12.931  0.7467E-01  0.3604E+01
    -12.851 -0.2281E-02  0.3604E+01
    -12.770 -0.2129E-01  0.3602E+01
    -12.690 -0.1660E-01  0.3601E+01
    -12.610 -0.7634E-02  0.3600E+01
    -12.529 -0.2339E-02  0.3600E+01
    -12.449 -0.4948E-03  0.3600E+01
    -12.369 -0.7351E-04  0.3600E+01
    -12.288 -0.7743E-05  0.3600E+01
    -12.208 -0.5816E-06  0.3600E+01
    -12.128 -0.3127E-07  0.3600E+01
    -12.047 -0.1207E-08  0.3600E+01
    -11.967 -0.3347E-10  0.3600E+01
    -11.887 -0.6682E-12  0.3600E+01
    -11.806 -0.9663E-14  0.3600E+01
    -11.726 -0.8599E-16  0.3600E+01
    -11.646 -0.1320E-15  0.3600E+01
    -11.565 -0.1301E-13  0.3600E+01
    -11.485 -0.9508E-12  0.3600E+01
    -11.405 -0.5013E-10  0.3600E+01
    -11.324 -0.1905E-08  0.3600E+01
    -11.244 -0.5209E-07  0.3600E+01
    -11.164 -0.1024E-05  0.3600E+01
    -11.083 -0.1442E-04  0.3600E+01
    -11.003 -0.1452E-03  0.3600E+01
    -10.923 -0.1039E-02  0.3600E+01
    -10.842 -0.5234E-02  0.3599E+01
    -10.762 -0.1821E-01  0.3598E+01
    -10.682 -0.4129E-01  0.3595E+01
    -10.601 -0.4713E-01  0.3591E+01
    -10.521  0.4694E-01  0.3595E+01
    -10.441  0.3607E+00  0.3624E+01
    -10.360  0.9557E+00  0.3700E+01
    -10.280  0.1705E+01  0.3837E+01
    -10.200  0.2301E+01  0.4022E+01
    -10.119  0.2518E+01  0.4225E+01
    -10.039  0.2431E+01  0.4420E+01
     -9.959  0.2251E+01  0.4601E+01
     -9.878  0.2056E+01  0.4766E+01
     -9.798  0.1806E+01  0.4911E+01
     -9.718  0.1517E+01  0.5033E+01
     -9.637  0.1267E+01  0.5135E+01
     -9.557  0.1092E+01  0.5222E+01
     -9.477  0.9779E+00  0.5301E+01
     -9.396  0.9129E+00  0.5374E+01
     -9.316  0.8864E+00  0.5445E+01
     -9.236  0.8625E+00  0.5515E+01
     -9.155  0.8176E+00  0.5580E+01
     -9.075  0.7671E+00  0.5642E+01
     -8.995  0.7143E+00  0.5699E+01
     -8.914  0.6284E+00  0.5750E+01
     -8.834  0.5093E+00  0.5791E+01
     -8.754  0.4166E+00  0.5824E+01
     -8.673  0.4029E+00  0.5857E+01
     -8.593  0.4416E+00  0.5892E+01
     -8.513  0.4529E+00  0.5928E+01
     -8.432  0.3952E+00  0.5960E+01
     -8.352  0.2879E+00  0.5983E+01
     -8.272  0.1657E+00  0.5997E+01
     -8.191  0.6179E-01  0.6002E+01
     -8.111  0.3239E-02  0.6002E+01
     -8.031 -0.1192E-01  0.6001E+01
     -7.950 -0.7931E-02  0.6000E+01
     -7.870 -0.2805E-02  0.6000E+01
     -7.790 -0.6410E-03  0.6000E+01
     -7.709 -0.1003E-03  0.6000E+01
     -7.629 -0.1101E-04  0.6000E+01
     -7.549 -0.8596E-06  0.6000E+01
     -7.468 -0.4805E-07  0.6000E+01
     -7.388 -0.1932E-08  0.6000E+01
     -7.308 -0.5851E-10  0.6000E+01
     -7.227 -0.1223E-09  0.6000E+01
     -7.147 -0.4258E-08  0.6000E+01
     -7.067 -0.1075E-06  0.6000E+01
     -6.986 -0.1944E-05  0.6000E+01
     -6.906 -0.2507E-04  0.6000E+01
     -6.826 -0.2291E-03  0.6000E+01
     -6.745 -0.1467E-02  0.6000E+01
     -6.665 -0.6448E-02  0.5999E+01
     -6.585 -0.1848E-01  0.5998E+01
     -6.504 -0.2909E-01  0.5996E+01
     -6.424  0.2614E-02  0.5996E+01
     -6.344  0.1395E+00  0.6007E+01
     -6.263  0.4020E+00  0.6039E+01
     -6.183  0.7204E+00  0.6097E+01
     -6.103  0.9682E+00  0.6175E+01
     -6.022  0.1039E+01  0.6258E+01
     -5.942  0.9369E+00  0.6334E+01
     -5.862  0.8240E+00  0.6400E+01
     -5.781  0.8826E+00  0.6471E+01
     -5.701  0.1129E+01  0.6561E+01
     -5.621  0.1433E+01  0.6677E+01
     -5.540  0.1704E+01  0.6813E+01
     -5.460  0.1950E+01  0.6970E+01
     -5.380  0.2179E+01  0.7145E+01
     -5.299  0.2326E+01  0.7332E+01
     -5.219  0.2316E+01  0.7518E+01
     -5.139  0.2167E+01  0.7692E+01
     -5.058  0.2016E+01  0.7854E+01
     -4.978  0.2007E+01  0.8015E+01
     -4.898  0.2119E+01  0.8186E+01
     -4.817  0.2181E+01  0.8361E+01
     -4.737  0.2114E+01  0.8531E+01
     -4.657  0.2056E+01  0.8696E+01
     -4.576  0.2166E+01  0.8870E+01
     -4.496  0.2382E+01  0.9061E+01
     -4.416  0.2506E+01  0.9262E+01
     -4.335  0.2477E+01  0.9461E+01
     -4.255  0.2451E+01  0.9658E+01
     -4.175  0.2580E+01  0.9865E+01
     -4.094  0.2792E+01  0.1009E+02
     -4.014  0.2895E+01  0.1032E+02
     -3.934  0.2836E+01  0.1055E+02
     -3.853  0.2694E+01  0.1077E+02
     -3.773  0.2538E+01  0.1097E+02
     -3.693  0.2426E+01  0.1117E+02
     -3.612  0.2425E+01  0.1136E+02
     -3.532  0.2511E+01  0.1156E+02
     -3.452  0.2583E+01  0.1177E+02
     -3.371  0.2586E+01  0.1198E+02
     -3.291  0.2502E+01  0.1218E+02
     -3.211  0.2295E+01  0.1236E+02
     -3.130  0.1990E+01  0.1252E+02
     -3.050  0.1721E+01  0.1266E+02
     -2.970  0.1616E+01  0.1279E+02
     -2.889  0.1725E+01  0.1293E+02
     -2.809  0.2020E+01  0.1309E+02
     -2.729  0.2394E+01  0.1328E+02
     -2.648  0.2694E+01  0.1350E+02
     -2.568  0.2823E+01  0.1373E+02
     -2.488  0.2811E+01  0.1395E+02
     -2.407  0.2764E+01  0.1417E+02
     -2.327  0.2735E+01  0.1439E+02
     -2.247  0.2718E+01  0.1461E+02
     -2.166  0.2741E+01  0.1483E+02
     -2.086  0.2838E+01  0.1506E+02
     -2.006  0.2956E+01  0.1530E+02
     -1.925  0.3002E+01  0.1554E+02
     -1.845  0.2963E+01  0.1578E+02
     -1.765  0.2849E+01  0.1601E+02
     -1.684  0.2604E+01  0.1622E+02
     -1.604  0.2194E+01  0.1639E+02
     -1.524  0.1726E+01  0.1653E+02
     -1.443  0.1329E+01  0.1664E+02
     -1.363  0.1004E+01  0.1672E+02
     -1.283  0.6756E+00  0.1677E+02
     -1.202  0.3388E+00  0.1680E+02
     -1.122  0.8639E-01  0.1681E+02
     -1.042 -0.2363E-01  0.1680E+02
     -0.961 -0.3483E-01  0.1680E+02
     -0.881 -0.1967E-01  0.1680E+02
     -0.801 -0.9595E-02  0.1680E+02
     -0.720  0.1359E-02  0.1680E+02
     -0.640  0.2633E-01  0.1680E+02
     -0.560  0.6473E-01  0.1681E+02
     -0.479  0.1063E+00  0.1682E+02
     -0.399  0.1524E+00  0.1683E+02
     -0.319  0.2206E+00  0.1685E+02
     -0.238  0.3389E+00  0.1687E+02
     -0.158  0.5419E+00  0.1692E+02
     -0.078  0.8333E+00  0.1698E+02
      0.003  0.1151E+01  0.1708E+02
      0.083  0.1407E+01  0.1719E+02
      0.163  0.1570E+01  0.1731E+02
      0.244  0.1665E+01  0.1745E+02
      0.324  0.1727E+01  0.1759E+02
      0.404  0.1757E+01  0.1773E+02
      0.485  0.1760E+01  0.1787E+02
      0.565  0.1792E+01  0.1801E+02
      0.645  0.1927E+01  0.1817E+02
      0.726  0.2187E+01  0.1834E+02
      0.806  0.2508E+01  0.1855E+02
      0.886  0.2781E+01  0.1877E+02
      0.967  0.2924E+01  0.1900E+02
      1.047  0.2935E+01  0.1924E+02
      1.127  0.2869E+01  0.1947E+02
      1.208  0.2766E+01  0.1969E+02
      1.288  0.2631E+01  0.1990E+02
      1.368  0.2497E+01  0.2010E+02
      1.449  0.2421E+01  0.2030E+02
      1.529  0.2414E+01  0.2049E+02
      1.609  0.2431E+01  0.2069E+02
      1.690  0.2430E+01  0.2088E+02
      1.770  0.2416E+01  0.2108E+02
      1.850  0.2416E+01  0.2127E+02
      1.931  0.2418E+01  0.2147E+02
      2.011  0.2368E+01  0.2166E+02
      2.091  0.2277E+01  0.2184E+02
      2.172  0.2253E+01  0.2202E+02
      2.252  0.2360E+01  0.2221E+02
      2.332  0.2479E+01  0.2241E+02
      2.413  0.2424E+01  0.2260E+02
      2.493  0.2159E+01  0.2278E+02
      2.573  0.1818E+01  0.2292E+02
      2.654  0.1560E+01  0.2305E+02
      2.734  0.1447E+01  0.2316E+02
      2.814  0.1429E+01  0.2328E+02
      2.895  0.1420E+01  0.2339E+02
      2.975  0.1391E+01  0.2350E+02
      3.055  0.1351E+01  0.2361E+02
      3.136  0.1302E+01  0.2372E+02
      3.216  0.1261E+01  0.2382E+02
      3.296  0.1235E+01  0.2392E+02
      3.377  0.1158E+01  0.2401E+02
      3.457  0.9410E+00  0.2409E+02
      3.537  0.6302E+00  0.2414E+02
      3.618  0.4274E+00  0.2417E+02
      3.698  0.5269E+00  0.2421E+02
      3.778  0.9260E+00  0.2429E+02
      3.859  0.1396E+01  0.2440E+02
      3.939  0.1685E+01  0.2454E+02
      4.019  0.1737E+01  0.2468E+02
      4.100  0.1654E+01  0.2481E+02
      4.180  0.1541E+01  0.2493E+02
      4.260  0.1442E+01  0.2505E+02
      4.341  0.1359E+01  0.2516E+02
      4.421  0.1291E+01  0.2526E+02
      4.501  0.1232E+01  0.2536E+02
      4.582  0.1122E+01  0.2545E+02
      4.662  0.8894E+00  0.2552E+02
      4.742  0.5712E+00  0.2557E+02
      4.823  0.2841E+00  0.2559E+02
      4.903  0.1068E+00  0.2560E+02
      4.983  0.2882E-01  0.2560E+02
      5.064  0.1435E-02  0.2560E+02
      5.144 -0.6445E-02  0.2560E+02
      5.224 -0.5939E-02  0.2560E+02
      5.305 -0.2987E-02  0.2560E+02
      5.385 -0.9627E-03  0.2560E+02
      5.465 -0.2088E-03  0.2560E+02
      5.546 -0.3126E-04  0.2560E+02
      5.626 -0.3277E-05  0.2560E+02
      5.706 -0.2431E-06  0.2560E+02
      5.787 -0.1284E-07  0.2560E+02
      5.867 -0.4849E-09  0.2560E+02
      5.947 -0.1314E-10  0.2560E+02
      6.028 -0.2560E-12  0.2560E+02
      6.108 -0.3593E-14  0.2560E+02
      6.188 -0.3189E-16  0.2560E+02
      6.269  0.0000E+00  0.2560E+02
      6.349  0.0000E+00  0.2560E+02
      6.429  0.0000E+00  0.2560E+02
      6.510  0.0000E+00  0.2560E+02
      6.590  0.0000E+00  0.2560E+02
      6.670  0.0000E+00  0.2560E+02
      6.751  0.0000E+00  0.2560E+02
      6.831  0.0000E+00  0.2560E+02
      6.911  0.0000E+00  0.2560E+02
      6.91147978    -17.18856488  301     -1.19882920      1.00000000
    -17.189  0.0000E+00  0.0000E+00  0.0000E+00  0.0000E+00  0.0000E+00  0.0000E+00  0.0000E+00  0.0000E+00  0.0000E+00
    -17.108  0.0000E+00  0.0000E+00  0.0000E+00  0.0000E+00  0.0000E+00  0.0000E+00  0.0000E+00  0.0000E+00  0.0000E+00
    -17.028  0.0000E+00  0.0000E+00  0.0000E+00  0.0000E+00  0.0000E+00  0.0000E+00  0.0000E+00  0.0000E+00  0.0000E+00
    -16.948  0.0000E+00  0.0000E+00  0.0000E+00  0.0000E+00  0.0000E+00  0.0000E+00  0.0000E+00  0.0000E+00  0.0000E+00
    -16.867 -0.1859E-33 -0.4177E-35 -0.6976E-36 -0.8484E-64 -0.6672E-65 -0.1450E-38 -0.2524E-37 -0.2582E-63 -0.2719E-37
    -16.787 -0.2205E-30 -0.5362E-32 -0.8769E-33 -0.6232E-34 -0.6929E-37 -0.1977E-35 -0.2979E-34 -0.5160E-37 -0.3354E-34
    -16.707 -0.1150E-27 -0.2810E-29 -0.4610E-30 -0.3820E-31 -0.4764E-34 -0.1051E-32 -0.1553E-31 -0.3522E-34 -0.1757E-31
    -16.626 -0.4347E-25 -0.1067E-26 -0.1756E-27 -0.1649E-28 -0.2162E-31 -0.4047E-30 -0.5869E-29 -0.1589E-31 -0.6667E-29
    -16.546 -0.1193E-22 -0.2942E-24 -0.4861E-25 -0.5159E-26 -0.7114E-29 -0.1133E-27 -0.1610E-26 -0.5205E-29 -0.1838E-26
    -16.466 -0.2379E-20 -0.5896E-22 -0.9786E-23 -0.1170E-23 -0.1697E-26 -0.2311E-25 -0.3210E-24 -0.1237E-26 -0.3683E-24
    -16.385 -0.3446E-18 -0.8590E-20 -0.1433E-20 -0.1922E-21 -0.2936E-24 -0.3430E-23 -0.4650E-22 -0.2136E-24 -0.5364E-22
    -16.305 -0.3525E-16 -0.8837E-18 -0.1485E-18 -0.2242E-19 -0.3636E-22 -0.3608E-21 -0.4754E-20 -0.2642E-22 -0.5520E-20
    -16.225 -0.2680E-14 -0.6762E-16 -0.1144E-16 -0.1912E-17 -0.3241E-20 -0.2821E-19 -0.3614E-18 -0.2357E-20 -0.4224E-18
    -16.144 -0.1483E-12 -0.3766E-14 -0.6427E-15 -0.1191E-15 -0.2126E-18 -0.1610E-17 -0.1999E-16 -0.1550E-18 -0.2353E-16
    -16.064 -0.5954E-11 -0.1524E-12 -0.2629E-13 -0.5379E-14 -0.1010E-16 -0.6693E-16 -0.8022E-15 -0.7398E-17 -0.9521E-15
    -15.984 -0.1736E-09 -0.4482E-11 -0.7838E-12 -0.1761E-12 -0.3473E-15 -0.2027E-14 -0.2337E-13 -0.2567E-15 -0.2799E-13
    -15.903 -0.3674E-08 -0.9595E-10 -0.1710E-10 -0.4187E-11 -0.8649E-14 -0.4484E-13 -0.4939E-12 -0.6491E-14 -0.5978E-12
    -15.823 -0.5658E-07 -0.1501E-08 -0.2753E-09 -0.7254E-10 -0.1561E-12 -0.7283E-12 -0.7588E-11 -0.1203E-12 -0.9302E-11
    -15.743 -0.6375E-06 -0.1733E-07 -0.3320E-08 -0.9222E-09 -0.2044E-11 -0.8784E-11 -0.8510E-10 -0.1650E-11 -0.1061E-09
    -15.662 -0.5323E-05 -0.1503E-06 -0.3079E-07 -0.8714E-08 -0.1949E-10 -0.8026E-10 -0.7046E-09 -0.1704E-10 -0.8985E-09
    -15.582 -0.3370E-04 -0.1007E-05 -0.2260E-06 -0.6254E-07 -0.1362E-09 -0.5712E-09 -0.4397E-08 -0.1356E-09 -0.5788E-08
    -15.502 -0.1664E-03 -0.5359E-05 -0.1331E-05 -0.3505E-06 -0.7032E-09 -0.3244E-08 -0.2127E-07 -0.8496E-09 -0.2923E-07
    -15.421 -0.6485E-03 -0.2261E-04 -0.6133E-05 -0.1569E-05 -0.2714E-08 -0.1466E-07 -0.8098E-07 -0.4228E-08 -0.1173E-06
    -15.341 -0.1903E-02 -0.7129E-04 -0.2058E-04 -0.5572E-05 -0.7868E-08 -0.5038E-07 -0.2328E-06 -0.1639E-07 -0.3605E-06
    -15.261 -0.3546E-02 -0.1435E-03 -0.4334E-04 -0.1484E-04 -0.1675E-07 -0.1190E-06 -0.4253E-06 -0.4689E-07 -0.7421E-06
    -15.180 -0.1191E-02 -0.7944E-04 -0.2829E-04 -0.2518E-04 -0.2261E-07 -0.1431E-06 -0.1226E-06 -0.8811E-07 -0.5587E-06
    -15.100  0.1509E-01  0.5070E-03  0.1349E-03 -0.7903E-05 -0.3408E-09  0.1335E-06  0.1884E-05 -0.6746E-07  0.2073E-05
    -15.020  0.5059E-01  0.1861E-02  0.5027E-03  0.9621E-04  0.9816E-07  0.1015E-05  0.6247E-05  0.1459E-06  0.8808E-05
    -14.939  0.9056E-01  0.3485E-02  0.9029E-03  0.3325E-03  0.3147E-06  0.2490E-05  0.1118E-04  0.5572E-06  0.1817E-04
    -14.859  0.1099E+00  0.4421E-02  0.1077E-02  0.6774E-03  0.6336E-06  0.4264E-05  0.1360E-04  0.9024E-06  0.2617E-04
    -14.779  0.1042E+00  0.4356E-02  0.1132E-02  0.1060E-02  0.1030E-05  0.6269E-05  0.1279E-04  0.1166E-05  0.3105E-04
    -14.698  0.9313E-01  0.3803E-02  0.1646E-02  0.1415E-02  0.1724E-05  0.8699E-05  0.1076E-04  0.3001E-05  0.3434E-04
    -14.618  0.9249E-01  0.3262E-02  0.3081E-02  0.1742E-02  0.3450E-05  0.1192E-04  0.9169E-05  0.1100E-04  0.3833E-04
    -14.538  0.1003E+00  0.2925E-02  0.5030E-02  0.2161E-02  0.7203E-05  0.1640E-04  0.8314E-05  0.3084E-04  0.4489E-04
    -14.457  0.1051E+00  0.2798E-02  0.6323E-02  0.2669E-02  0.1334E-04  0.2122E-04  0.7856E-05  0.6349E-04  0.5217E-04
    -14.377  0.9738E-01  0.2763E-02  0.6267E-02  0.3066E-02  0.2105E-04  0.2568E-04  0.7542E-05  0.1034E-03  0.5826E-04
    -14.297  0.8189E-01  0.2999E-02  0.5500E-02  0.3471E-02  0.2948E-04  0.3389E-04  0.8964E-05  0.1459E-03  0.7479E-04
    -14.216  0.7033E-01  0.3852E-02  0.5049E-02  0.4088E-02  0.3991E-04  0.4956E-04  0.1470E-04  0.1942E-03  0.1145E-03
    -14.136  0.6308E-01  0.5134E-02  0.5088E-02  0.4630E-02  0.5545E-04  0.7076E-04  0.2487E-04  0.2585E-03  0.1703E-03
    -14.056  0.5569E-01  0.6512E-02  0.5126E-02  0.5144E-02  0.7941E-04  0.9941E-04  0.3762E-04  0.3557E-03  0.2363E-03
    -13.975  0.5120E-01  0.8003E-02  0.4788E-02  0.6186E-02  0.1160E-03  0.1380E-03  0.5072E-04  0.5067E-03  0.3132E-03
    -13.895  0.5134E-01  0.9450E-02  0.4027E-02  0.7356E-02  0.1669E-03  0.1761E-03  0.6100E-04  0.7093E-03  0.3835E-03
    -13.815  0.5394E-01  0.1078E-01  0.3135E-02  0.7546E-02  0.2279E-03  0.2162E-03  0.6820E-04  0.9238E-03  0.4469E-03
    -13.734  0.6191E-01  0.1259E-01  0.2821E-02  0.6763E-02  0.2979E-03  0.3076E-03  0.7962E-04  0.1136E-02  0.5697E-03
    -13.654  0.7598E-01  0.1536E-01  0.3788E-02  0.6147E-02  0.3714E-03  0.5412E-03  0.1082E-03  0.1361E-02  0.8549E-03
    -13.574  0.8486E-01  0.1888E-01  0.6216E-02  0.6585E-02  0.4106E-03  0.1034E-02  0.1679E-03  0.1505E-02  0.1402E-02
    -13.493  0.7755E-01  0.2224E-01  0.9731E-02  0.7776E-02  0.3703E-03  0.1788E-02  0.2547E-03  0.1380E-02  0.2175E-02
    -13.413  0.5729E-01  0.2309E-01  0.1293E-01  0.8384E-02  0.2673E-03  0.2413E-02  0.3177E-03  0.9941E-03  0.2750E-02
    -13.333  0.3512E-01  0.1884E-01  0.1332E-01  0.7352E-02  0.1707E-03  0.2328E-02  0.2909E-03  0.6179E-03  0.2548E-02
    -13.252  0.1850E-01  0.1078E-01  0.9894E-02  0.5044E-02  0.1175E-03  0.1500E-02  0.1798E-03  0.4287E-03  0.1598E-02
    -13.172  0.8985E-02  0.3613E-02  0.4877E-02  0.2758E-02  0.8912E-04  0.5653E-03  0.6482E-04  0.3526E-03  0.5900E-03
    -13.092  0.4598E-02  0.1341E-03  0.1280E-02  0.1312E-02  0.6205E-04  0.4522E-04  0.4571E-05  0.2693E-03  0.4610E-04
    -13.011  0.2544E-02 -0.5490E-03 -0.1194E-03  0.5939E-03  0.3425E-04 -0.8004E-04 -0.8242E-05  0.1601E-03 -0.8145E-04
    -12.931  0.1198E-02 -0.3185E-03 -0.2915E-03  0.2164E-03  0.1277E-04 -0.5395E-04 -0.4634E-05  0.6390E-04 -0.5414E-04
    -12.851  0.2737E-03 -0.1039E-03 -0.1631E-03  0.1493E-04  0.1236E-05 -0.1994E-04 -0.1280E-05  0.8429E-05 -0.1981E-04
    -12.770 -0.1339E-03 -0.2933E-04 -0.6397E-04 -0.4926E-04 -0.2141E-05 -0.5311E-05 -0.3413E-06 -0.8959E-05 -0.5440E-05
    -12.690 -0.1658E-03 -0.1236E-04 -0.2052E-04 -0.3878E-04 -0.1695E-05 -0.1244E-05 -0.2123E-06 -0.7600E-05 -0.1508E-05
    -12.610 -0.8359E-04 -0.5971E-05 -0.5450E-05 -0.1630E-04 -0.7023E-06 -0.3155E-06 -0.1259E-06 -0.3200E-05 -0.4942E-06
    -12.529 -0.2618E-04 -0.2122E-05 -0.1152E-05 -0.4478E-05 -0.1905E-06 -0.8210E-07 -0.4720E-07 -0.8732E-06 -0.1504E-06
    -12.449 -0.5547E-05 -0.5081E-06 -0.1863E-06 -0.8515E-06 -0.3588E-07 -0.1760E-07 -0.1143E-07 -0.1649E-06 -0.3427E-07
    -12.369 -0.8206E-06 -0.8272E-07 -0.2254E-07 -0.1150E-06 -0.4809E-08 -0.2762E-08 -0.1861E-08 -0.2213E-07 -0.5490E-08
    -12.288 -0.8596E-07 -0.9308E-08 -0.2017E-08 -0.1116E-07 -0.4639E-09 -0.3069E-09 -0.2088E-09 -0.2136E-08 -0.6145E-09
    -12.208 -0.6425E-08 -0.7335E-09 -0.1328E-09 -0.7835E-09 -0.3241E-10 -0.2408E-10 -0.1641E-10 -0.1493E-09 -0.4834E-10
    -12.128 -0.3441E-09 -0.4084E-10 -0.6426E-11 -0.3991E-10 -0.1644E-11 -0.1339E-11 -0.9113E-12 -0.7576E-11 -0.2690E-11
    -12.047 -0.1324E-10 -0.1616E-11 -0.2279E-12 -0.1476E-11 -0.6059E-13 -0.5296E-13 -0.3600E-13 -0.2793E-12 -0.1065E-12
    -11.967 -0.3664E-12 -0.4568E-13 -0.5916E-14 -0.3960E-13 -0.1622E-14 -0.1496E-14 -0.1016E-14 -0.7478E-14 -0.3009E-14
    -11.887 -0.7302E-14 -0.9243E-15 -0.1121E-15 -0.7709E-15 -0.3151E-16 -0.3028E-16 -0.2053E-16 -0.1453E-15 -0.6089E-16
    -11.806 -0.1056E-15 -0.1346E-16 -0.1581E-17 -0.1102E-16 -0.4500E-18 -0.4411E-18 -0.2989E-18 -0.2075E-17 -0.8869E-18
    -11.726 -0.9281E-18 -0.1222E-18 -0.1224E-19 -0.9140E-19 -0.3715E-20 -0.4005E-20 -0.2707E-20 -0.1713E-19 -0.8054E-20
    -11.646 -0.2435E-18 -0.1178E-20 -0.2276E-21 -0.1683E-20 -0.3610E-21 -0.1534E-22 -0.4542E-22 -0.1825E-21 -0.3671E-22
    -11.565 -0.2654E-16 -0.1220E-18 -0.2447E-19 -0.1686E-18 -0.3643E-19 -0.1730E-20 -0.4776E-20 -0.1858E-19 -0.3837E-20
    -11.485 -0.2190E-14 -0.9455E-17 -0.1979E-17 -0.1254E-16 -0.2732E-17 -0.1459E-18 -0.3757E-18 -0.1412E-17 -0.2989E-18
    -11.405 -0.1358E-12 -0.5396E-15 -0.1200E-15 -0.6755E-15 -0.1487E-15 -0.9283E-17 -0.2189E-16 -0.7843E-16 -0.1717E-16
    -11.324 -0.6368E-11 -0.2279E-13 -0.5469E-14 -0.2633E-13 -0.5864E-14 -0.4449E-15 -0.9465E-15 -0.3195E-14 -0.7273E-15
    -11.244 -0.2271E-09 -0.7179E-12 -0.1888E-12 -0.7428E-12 -0.1679E-12 -0.1613E-13 -0.3057E-13 -0.9610E-13 -0.2280E-13
    -11.164 -0.6186E-08 -0.1703E-10 -0.4960E-11 -0.1520E-10 -0.3491E-11 -0.4442E-12 -0.7425E-12 -0.2154E-11 -0.5316E-12
    -11.083 -0.1286E-06 -0.3069E-09 -0.9936E-10 -0.2263E-09 -0.5285E-10 -0.9327E-11 -0.1364E-10 -0.3641E-10 -0.9262E-11
    -11.003 -0.2031E-05 -0.4235E-08 -0.1513E-08 -0.2474E-08 -0.5847E-09 -0.1495E-09 -0.1902E-09 -0.4698E-09 -0.1210E-09
    -10.923 -0.2415E-04 -0.4486E-07 -0.1739E-07 -0.2018E-07 -0.4751E-08 -0.1824E-08 -0.2010E-08 -0.4666E-08 -0.1186E-08
    -10.842 -0.2133E-03 -0.3634E-06 -0.1488E-06 -0.1263E-06 -0.2853E-07 -0.1687E-07 -0.1599E-07 -0.3562E-07 -0.8688E-08
    -10.762 -0.1376E-02 -0.2227E-05 -0.9305E-06 -0.6268E-06 -0.1269E-06 -0.1171E-06 -0.9411E-07 -0.2054E-06 -0.4697E-07
    -10.682 -0.6319E-02 -0.1013E-04 -0.4126E-05 -0.2522E-05 -0.4116E-06 -0.6024E-06 -0.3985E-06 -0.8623E-06 -0.1821E-06
    -10.601 -0.1964E-01 -0.3302E-04 -0.1224E-04 -0.8102E-05 -0.9117E-06 -0.2238E-05 -0.1145E-05 -0.2452E-05 -0.4723E-06
    -10.521 -0.3601E-01 -0.7052E-04 -0.2055E-04 -0.1947E-04 -0.1019E-05 -0.5646E-05 -0.1884E-05 -0.3824E-05 -0.6449E-06
    -10.441 -0.1212E-01 -0.6418E-04 -0.1342E-05 -0.2994E-04  0.1157E-05 -0.7596E-05 -0.9697E-07  0.1049E-05  0.3996E-06
    -10.360  0.1357E+00  0.1567E-03  0.8985E-04 -0.7533E-05  0.7905E-05  0.5378E-05  0.8372E-05  0.2132E-04  0.4148E-05
    -10.280  0.4493E+00  0.8037E-03  0.2607E-03  0.1189E-03  0.1944E-04  0.5429E-04  0.2464E-04  0.5600E-04  0.1036E-04
    -10.200  0.8346E+00  0.1841E-02  0.4538E-03  0.4558E-03  0.3486E-04  0.1410E-03  0.4351E-04  0.8602E-04  0.1610E-04
    -10.119  0.1122E+01  0.2748E-02  0.6223E-03  0.1073E-02  0.5611E-04  0.2223E-03  0.5941E-04  0.9634E-04  0.1946E-04
    -10.039  0.1239E+01  0.2863E-02  0.7997E-03  0.1825E-02  0.8274E-04  0.2445E-03  0.7530E-04  0.1050E-03  0.2421E-04
     -9.959  0.1258E+01  0.2116E-02  0.1027E-02  0.2300E-02  0.1028E-03  0.2147E-03  0.9981E-04  0.1483E-03  0.3638E-04
     -9.878  0.1243E+01  0.1148E-02  0.1220E-02  0.2178E-02  0.1035E-03  0.1868E-03  0.1301E-03  0.2290E-03  0.5379E-04
     -9.798  0.1110E+01  0.5581E-03  0.1183E-02  0.1608E-02  0.9034E-04  0.1777E-03  0.1437E-03  0.2981E-03  0.6482E-04
     -9.718  0.8088E+00  0.4078E-03  0.8628E-03  0.1081E-02  0.8036E-04  0.1618E-03  0.1252E-03  0.3073E-03  0.6153E-04
     -9.637  0.4990E+00  0.4822E-03  0.5023E-03  0.9695E-03  0.8243E-04  0.1333E-03  0.9051E-04  0.2632E-03  0.4720E-04
     -9.557  0.3377E+00  0.6394E-03  0.3447E-03  0.1156E-02  0.9059E-04  0.1095E-03  0.6396E-04  0.2100E-03  0.2944E-04
     -9.477  0.2682E+00  0.8256E-03  0.3574E-03  0.1160E-02  0.9266E-04  0.9535E-04  0.5124E-04  0.1763E-03  0.1465E-04
     -9.396  0.1894E+00  0.1004E-02  0.4153E-03  0.8132E-03  0.8508E-04  0.8549E-04  0.4671E-04  0.1569E-03  0.6646E-05
     -9.316  0.1329E+00  0.1168E-02  0.5536E-03  0.5444E-03  0.7912E-04  0.8094E-04  0.4655E-04  0.1381E-03  0.4760E-05
     -9.236  0.1512E+00  0.1352E-02  0.8962E-03  0.6981E-03  0.8243E-04  0.8413E-04  0.5003E-04  0.1170E-03  0.5986E-05
     -9.155  0.1889E+00  0.1554E-02  0.1392E-02  0.9612E-03  0.8217E-04  0.8889E-04  0.5580E-04  0.9131E-04  0.8813E-05
     -9.075  0.1685E+00  0.1599E-02  0.1688E-02  0.8713E-03  0.6443E-04  0.8193E-04  0.5659E-04  0.5976E-04  0.1212E-04
     -8.995  0.1173E+00  0.1285E-02  0.1450E-02  0.5494E-03  0.3866E-04  0.5735E-04  0.4416E-04  0.2952E-04  0.1357E-04
     -8.914  0.1120E+00  0.7249E-03  0.8197E-03  0.4399E-03  0.2433E-04  0.2691E-04  0.2264E-04  0.9377E-05  0.1194E-04
     -8.834  0.1484E+00  0.2753E-03  0.2703E-03  0.5782E-03  0.2370E-04  0.6901E-05  0.5218E-05  0.8961E-06  0.8795E-05
     -8.754  0.1625E+00  0.1166E-03  0.5255E-04  0.6295E-03  0.2410E-04  0.6560E-06 -0.1723E-05 -0.4780E-06  0.6771E-05
     -8.673  0.1488E+00  0.1453E-03  0.6029E-04  0.4889E-03  0.1984E-04  0.1344E-05 -0.1490E-05  0.2571E-06  0.7518E-05
     -8.593  0.1572E+00  0.1883E-03  0.1099E-03  0.3546E-03  0.1587E-04  0.3466E-05  0.1606E-05  0.6781E-06  0.1068E-04
     -8.513  0.1982E+00  0.1637E-03  0.1183E-03  0.3109E-03  0.1417E-04  0.6140E-05  0.6513E-05  0.5169E-06  0.1459E-04
     -8.432  0.2334E+00  0.9580E-04  0.9023E-04  0.2578E-03  0.1139E-04  0.9589E-05  0.1268E-04  0.2092E-06  0.1768E-04
     -8.352  0.2263E+00  0.3970E-04  0.5523E-04  0.1561E-03  0.6785E-05  0.1181E-04  0.1666E-04  0.2627E-07  0.1802E-04
     -8.272  0.1651E+00  0.1317E-04  0.2858E-04  0.6147E-04  0.2696E-05  0.1012E-04  0.1454E-04 -0.2603E-07  0.1381E-04
     -8.191  0.7781E-01  0.3138E-05  0.1070E-04  0.9622E-05  0.4446E-06  0.5353E-05  0.7758E-05 -0.2269E-07  0.6796E-05
     -8.111  0.1368E-01 -0.9331E-06  0.8142E-06 -0.6900E-05 -0.2954E-06  0.1206E-05  0.1775E-05 -0.1086E-07  0.1327E-05
     -8.031 -0.8760E-02 -0.1750E-05 -0.2097E-05 -0.6725E-05 -0.2967E-06 -0.4372E-06 -0.6108E-06 -0.3792E-08 -0.6830E-06
     -7.950 -0.7684E-02 -0.1056E-05 -0.1536E-05 -0.3073E-05 -0.1366E-06 -0.4725E-06 -0.6728E-06 -0.1028E-08 -0.6447E-06
     -7.870 -0.2975E-02 -0.3746E-06 -0.5838E-06 -0.8874E-06 -0.3950E-07 -0.1932E-06 -0.2758E-06 -0.2173E-09 -0.2553E-06
     -7.790 -0.7155E-03 -0.8719E-07 -0.1421E-06 -0.1725E-06 -0.7678E-08 -0.4797E-07 -0.6848E-07 -0.3512E-10 -0.6230E-07
     -7.709 -0.1160E-03 -0.1390E-07 -0.2353E-07 -0.2317E-07 -0.1030E-08 -0.7959E-08 -0.1136E-07 -0.4240E-11 -0.1022E-07
     -7.629 -0.1309E-04 -0.1551E-08 -0.2720E-08 -0.2178E-08 -0.9667E-10 -0.9148E-09 -0.1305E-08 -0.3759E-12 -0.1164E-08
     -7.549 -0.1045E-05 -0.1227E-09 -0.2225E-09 -0.1446E-09 -0.6412E-11 -0.7414E-10 -0.1057E-09 -0.2420E-13 -0.9374E-10
     -7.468 -0.5958E-07 -0.6929E-11 -0.1298E-10 -0.6825E-11 -0.3023E-12 -0.4277E-11 -0.6099E-11 -0.1126E-14 -0.5381E-11
     -7.388 -0.2436E-08 -0.2807E-12 -0.5431E-12 -0.2301E-12 -0.1018E-13 -0.1766E-12 -0.2519E-12 -0.3779E-16 -0.2213E-12
     -7.308 -0.7169E-10 -0.9040E-14 -0.2229E-13 -0.1532E-13 -0.3403E-15 -0.5260E-14 -0.7488E-14 -0.5006E-17 -0.6555E-14
     -7.227 -0.1549E-11 -0.4597E-13 -0.3108E-12 -0.5054E-12 -0.4997E-14 -0.1313E-14 -0.8609E-15 -0.2137E-15 -0.5735E-15
     -7.147 -0.1064E-11 -0.1775E-11 -0.1166E-10 -0.1885E-10 -0.1901E-12 -0.4578E-13 -0.2668E-13 -0.8037E-14 -0.1645E-13
     -7.067 -0.2834E-10 -0.4998E-10 -0.3164E-09 -0.5084E-09 -0.5249E-11 -0.1272E-11 -0.7370E-12 -0.2177E-12 -0.4519E-12
     -6.986 -0.5534E-09 -0.1024E-08 -0.6223E-08 -0.9940E-08 -0.1055E-09 -0.2592E-10 -0.1486E-10 -0.4244E-11 -0.9035E-11
     -6.906 -0.7726E-08 -0.1532E-07 -0.8925E-07 -0.1418E-06 -0.1552E-08 -0.3919E-09 -0.2206E-09 -0.5956E-10 -0.1326E-09
     -6.826 -0.7674E-07 -0.1688E-06 -0.9448E-06 -0.1494E-05 -0.1690E-07 -0.4472E-08 -0.2445E-08 -0.6026E-09 -0.1449E-08
     -6.745 -0.5385E-06 -0.1386E-05 -0.7528E-05 -0.1183E-04 -0.1380E-06 -0.3925E-07 -0.2067E-07 -0.4415E-08 -0.1204E-07
     -6.665 -0.2640E-05 -0.8601E-05 -0.4622E-04 -0.7181E-04 -0.8566E-06 -0.2685E-06 -0.1362E-06 -0.2370E-07 -0.7774E-07
     -6.585 -0.8851E-05 -0.4073E-04 -0.2217E-03 -0.3365E-03 -0.4045E-05 -0.1423E-05 -0.7062E-06 -0.9515E-07 -0.3935E-06
     -6.504 -0.1921E-04 -0.1449E-03 -0.8145E-03 -0.1184E-02 -0.1409E-04 -0.5640E-05 -0.2821E-05 -0.2941E-06 -0.1528E-05
     -6.424 -0.2121E-04 -0.3586E-03 -0.2110E-02 -0.2833E-02 -0.3266E-04 -0.1542E-04 -0.8118E-05 -0.7014E-06 -0.4252E-05
     -6.344  0.1866E-04 -0.4592E-03 -0.2943E-02 -0.3151E-02 -0.3259E-04 -0.2306E-04 -0.1408E-04 -0.1130E-05 -0.7070E-05
     -6.263  0.1526E-03  0.4784E-03  0.2073E-02  0.5489E-02  0.7507E-04  0.9756E-05 -0.2203E-05 -0.2186E-06 -0.6771E-06
     -6.183  0.4333E-03  0.3775E-02  0.2116E-01  0.3205E-01  0.3842E-03  0.1431E-03  0.6419E-04  0.5526E-05  0.3223E-04
     -6.103  0.8462E-03  0.9150E-02  0.5400E-01  0.7120E-01  0.8131E-03  0.3784E-03  0.2032E-03  0.1954E-04  0.9910E-04
     -6.022  0.1227E-02  0.1336E-01  0.8319E-01  0.9839E-01  0.1070E-02  0.5954E-03  0.3662E-03  0.3891E-04  0.1761E-03
     -5.942  0.1381E-02  0.1311E-01  0.8923E-01  0.9511E-01  0.9680E-03  0.6569E-03  0.4630E-03  0.5297E-04  0.2269E-03
     -5.862  0.1386E-02  0.9466E-02  0.7369E-01  0.7121E-01  0.6714E-03  0.5815E-03  0.4489E-03  0.5307E-04  0.2591E-03
     -5.781  0.1525E-02  0.7476E-02  0.5482E-01  0.4892E-01  0.4563E-03  0.5034E-03  0.3630E-03  0.4268E-04  0.3271E-03
     -5.701  0.1920E-02  0.1209E-01  0.4451E-01  0.3601E-01  0.3751E-03  0.4834E-03  0.2868E-03  0.4143E-04  0.4486E-03
     -5.621  0.2698E-02  0.2627E-01  0.4209E-01  0.2747E-01  0.3333E-03  0.5115E-03  0.2803E-03  0.8095E-04  0.6015E-03
     -5.540  0.4276E-02  0.5149E-01  0.4382E-01  0.2373E-01  0.3388E-03  0.6359E-03  0.3372E-03  0.1762E-03  0.8541E-03
     -5.460  0.6609E-02  0.8561E-01  0.4666E-01  0.3165E-01  0.4577E-03  0.8969E-03  0.3997E-03  0.2970E-03  0.1349E-02
     -5.380  0.8623E-02  0.1189E+00  0.4781E-01  0.5075E-01  0.6525E-03  0.1202E-02  0.4465E-03  0.4018E-03  0.2024E-02
     -5.299  0.9399E-02  0.1381E+00  0.4803E-01  0.6990E-01  0.8394E-03  0.1432E-02  0.5515E-03  0.5024E-03  0.2466E-02
     -5.219  0.9269E-02  0.1389E+00  0.5024E-01  0.7834E-01  0.9907E-03  0.1579E-02  0.7819E-03  0.6409E-03  0.2281E-02
     -5.139  0.9146E-02  0.1289E+00  0.5288E-01  0.7572E-01  0.1101E-02  0.1654E-02  0.1064E-02  0.7931E-03  0.1607E-02
     -5.058  0.9764E-02  0.1178E+00  0.5380E-01  0.7132E-01  0.1164E-02  0.1668E-02  0.1282E-02  0.8672E-03  0.1012E-02
     -4.978  0.1162E-01  0.1114E+00  0.5888E-01  0.7537E-01  0.1217E-02  0.1741E-02  0.1444E-02  0.8321E-03  0.9192E-03
     -4.898  0.1421E-01  0.1098E+00  0.7274E-01  0.9051E-01  0.1291E-02  0.1944E-02  0.1568E-02  0.7821E-03  0.1302E-02
     -4.817  0.1556E-01  0.1049E+00  0.8423E-01  0.1078E+00  0.1334E-02  0.2093E-02  0.1538E-02  0.8421E-03  0.1772E-02
     -4.737  0.1415E-01  0.9100E-01  0.7812E-01  0.1129E+00  0.1235E-02  0.2002E-02  0.1293E-02  0.1048E-02  0.1893E-02
     -4.657  0.1108E-01  0.7640E-01  0.5727E-01  0.1024E+00  0.9809E-03  0.1851E-02  0.1007E-02  0.1324E-02  0.1618E-02