   60   60   20    1
  0.6963547E+02  0.4028518E-09  0.1283696E-08  0.8079314E-08  0.5000000E-15
  1.000000000000000E-004
  CAR 
 Tetradymite Slab                        
    336     21    256
 
  0.0000000E+00  0.0000000E+00  0.0000000E+00  0.1923077E-01
    1      -15.188565   1.000000
    2      -15.143781   1.000000
    3      -15.052749   1.000000
    4      -15.008590   1.000000
    5      -14.973535   1.000000
    6      -14.937816   1.000000
    7      -14.827971   1.000000
    8      -14.776949   1.000000
    9      -14.721556   1.000000
   10      -14.695335   1.000000
   11      -14.582205   1.000000
   12      -14.516251   1.000000
   13      -14.381591   1.000000
   14      -14.274347   1.000000
   15      -14.219969   1.000000
   16      -14.108552   1.000000
   17      -14.097039   1.000000
   18      -13.979397   1.000000
   19      -13.943781   1.000000
   20      -13.833191   1.000000
   21      -13.776357   1.000000
   22      -13.761796   1.000000
   23      -13.631007   1.000000
   24      -13.612924   1.000000
   25      -13.591134   1.000000
   26      -13.575605   1.000000
   27      -13.538805   1.000000
   28      -13.523806   1.000000
   29      -13.494521   1.000000
   30      -13.465937   1.000000
   31      -13.447235   1.000000
   32      -13.433704   1.000000
   33      -13.421927   1.000000
   34      -13.383205   1.000000
   35      -13.365519   1.000000
   36      -13.258133   1.000000
   37      -10.243508   1.000000
   38      -10.226976   1.000000
   39      -10.199955   1.000000
   40      -10.078902   1.000000
   41      -10.073093   1.000000
   42      -10.038071   1.000000
   43      -10.022537   1.000000
   44       -9.987705   1.000000
   45       -9.881077   1.000000
   46       -9.853841   1.000000
   47       -9.762578   1.000000
   48       -9.604158   1.000000
   49       -9.507725   1.000000
   50       -9.321993   1.000000
   51       -9.311147   1.000000
   52       -9.077059   1.000000
   53       -9.051009   1.000000
   54       -8.943390   1.000000
   55       -8.886016   1.000000
   56       -8.607036   1.000000
   57       -8.573534   1.000000
   58       -8.452505   1.000000
   59       -8.341637   1.000000
   60       -8.315107   1.000000
   61       -5.806680   1.000000
   62       -5.741035   1.000000
   63       -5.667687   1.000000
   64       -5.617163   1.000000
   65       -5.588287   1.000000
   66       -5.474418   1.000000
   67       -5.452834   1.000000
   68       -5.349199   1.000000
   69       -5.245722   1.000000
   70       -5.159113   1.000000
   71       -5.134489   1.000000
   72       -4.910520   1.000000
   73       -4.898389   1.000000
   74       -4.789564   1.000000
   75       -4.762043   1.000000
   76       -4.742752   1.000000
   77       -4.690549   1.000000
   78       -4.470954   1.000000
   79       -4.439281   1.000000
   80       -4.371493   1.000000
   81       -4.296564   1.000000
   82       -4.247616   1.000000
   83       -4.230260   1.000000
   84       -4.197901   1.000000
   85       -4.184199   1.000000
   86       -4.126624   1.000000
   87       -4.091961   1.000000
   88       -4.076837   1.000000
   89       -4.033342   1.000000
   90       -4.026749   1.000000
   91       -3.968902   1.000000
   92       -3.955353   1.000000
   93       -3.934710   1.000000
   94       -3.925368   1.000000
   95       -3.886206   1.000000
   96       -3.823931   1.000000
   97       -3.823352   1.000000
   98       -3.800232   1.000000
   99       -3.767178   1.000000
  100       -3.717819   1.000000
  101       -3.617149   1.000000
  102       -3.574256   1.000000
  103       -3.545213   1.000000
  104       -3.474590   1.000000
  105       -3.454603   1.000000
  106       -3.439360   1.000000
  107       -3.425971   1.000000
  108       -3.407066   1.000000
  109       -3.328613   1.000000
  110       -3.307508   1.000000
  111       -3.293084   1.000000
  112       -3.286909   1.000000
  113       -3.235391   1.000000
  114       -3.224517   1.000000
  115       -3.190182   1.000000
  116       -3.151890   1.000000
  117       -3.128990   1.000000
  118       -3.110613   1.000000
  119       -3.092724   1.000000
  120       -3.031448   1.000000
  121       -3.006539   1.000000
  122       -2.987041   1.000000
  123       -2.901646   1.000000
  124       -2.854405   1.000000
  125       -2.848200   1.000000
  126       -2.833175   1.000000
  127       -2.829244   1.000000
  128       -2.744023   1.000000
  129       -2.656313   1.000000
  130       -2.599684   1.000000
  131       -2.558168   1.000000
  132       -2.484211   1.000000
  133       -2.457751   1.000000
  134       -2.398564   1.000000
  135       -2.384805   1.000000
  136       -2.310002   1.000000
  137       -2.290623   1.000000
  138       -2.273326   1.000000
  139       -2.259225   1.000000
  140       -2.248444   1.000000
  141       -2.198775   1.000000
  142       -2.162472   1.000000
  143       -2.159108   1.000000
  144       -2.122554   1.000000
  145       -2.117240   1.000000
  146       -2.100507   1.000000
  147       -2.087972   1.000000
  148       -2.080671   1.000000
  149       -2.054159   1.000000
  150       -2.052012   1.000000
  151       -2.047221   1.000000
  152       -2.035139   1.000000
  153       -1.927341   1.000002
  154       -1.911229   1.000003
  155       -1.868277   1.000012
  156       -1.735354   1.000493
  157       -1.722126   1.000677
  158       -1.656779   1.002812
  159       -1.645375   1.003512
  160       -1.637615   1.004067
  161       -1.616073   1.005991
  162       -1.575851   1.011381
  163       -1.543534   1.017534
  164       -1.518222   1.023206
  165       -1.504983   1.026261
  166       -1.363744   0.996071
  167       -1.353570   0.983011
  168       -1.296402   0.863358
  169       -0.606455  -0.000115
  170       -0.557800  -0.000028
  171       -0.457001  -0.000001
  172       -0.418991  -0.000000
  173       -0.297907  -0.000000
  174       -0.275127  -0.000000
  175       -0.067687  -0.000000
  176       -0.028233  -0.000000
  177        0.085731  -0.000000
  178        0.118318  -0.000000
  179        0.221626  -0.000000
  180        0.254717  -0.000000
  181        0.381066  -0.000000
  182        0.409834  -0.000000
  183        0.436388  -0.000000
  184        0.507541  -0.000000
  185        0.537702  -0.000000
  186        0.649516  -0.000000
  187        0.677135  -0.000000
  188        0.689901  -0.000000
  189        0.711948  -0.000000
  190        0.715965  -0.000000
  191        0.762919  -0.000000
  192        0.795592  -0.000000
  193        0.833442  -0.000000
  194        0.835566  -0.000000
  195        0.877445  -0.000000
  196        0.888732  -0.000000
  197        0.915876  -0.000000
  198        0.945112  -0.000000
  199        0.979034  -0.000000
  200        1.003565  -0.000000
  201        1.036666  -0.000000
  202        1.053398  -0.000000
  203        1.075853  -0.000000
  204        1.095345  -0.000000
  205        1.130632  -0.000000
  206        1.187126  -0.000000
  207        1.235349  -0.000000
  208        1.277292  -0.000000
  209        1.311002  -0.000000
  210        1.350273  -0.000000
  211        1.430377  -0.000000
  212        1.509672  -0.000000
  213        1.566829  -0.000000
  214        1.609554  -0.000000
  215        1.720785  -0.000000
  216        1.759246  -0.000000
  217        1.812419  -0.000000
  218        1.852874  -0.000000
  219        1.869288  -0.000000
  220        1.894334  -0.000000
  221        1.943002  -0.000000
  222        1.963474  -0.000000
  223        1.997212  -0.000000
  224        1.997793  -0.000000
  225        2.026987  -0.000000
  226        2.069186  -0.000000
  227        2.203810  -0.000000
  228        2.225077  -0.000000
  229        2.308419  -0.000000
  230        2.312677  -0.000000
  231        2.346797  -0.000000
  232        2.378565  -0.000000
  233        2.556477  -0.000000
  234        2.685424  -0.000000
  235        2.717994  -0.000000
  236        2.754406  -0.000000
  237        2.787325  -0.000000
  238        2.843919  -0.000000
  239        2.991211  -0.000000
  240        3.068737  -0.000000
  241        3.099930  -0.000000
  242        3.138959  -0.000000
  243        3.264258  -0.000000
  244        3.305984  -0.000000
  245        3.337437  -0.000000
  246        3.407492  -0.000000
  247        3.443148  -0.000000
  248        3.754400  -0.000000
  249        3.818039  -0.000000
  250        3.864767  -0.000000
  251        3.922855  -0.000000
  252        3.944210  -0.000000
  253        4.102103  -0.000000
  254        4.275430   0.000000
  255        4.304793   0.000000
  256        4.307443   0.000000
 
  0.7692308E-01  0.3712819E-32  0.0000000E+00  0.3846154E-01
    1      -15.151379   1.000000
    2      -15.107169   1.000000
    3      -15.016760   1.000000
    4      -14.972854   1.000000
    5      -14.937701   1.000000
    6      -14.902436   1.000000
    7      -14.792731   1.000000
    8      -14.742042   1.000000
    9      -14.688096   1.000000
   10      -14.660634   1.000000
   11      -14.548796   1.000000
   12      -14.484135   1.000000
   13      -14.350335   1.000000
   14      -14.245954   1.000000
   15      -14.190131   1.000000
   16      -14.081118   1.000000
   17      -14.069257   1.000000
   18      -13.953609   1.000000
   19      -13.917855   1.000000
   20      -13.810278   1.000000
   21      -13.751268   1.000000
   22      -13.738340   1.000000
   23      -13.613928   1.000000
   24      -13.593900   1.000000
   25      -13.576753   1.000000
   26      -13.560921   1.000000
   27      -13.528659   1.000000
   28      -13.514855   1.000000
   29      -13.477885   1.000000
   30      -13.451877   1.000000
   31      -13.439436   1.000000
   32      -13.420665   1.000000
   33      -13.408533   1.000000
   34      -13.372367   1.000000
   35      -13.356006   1.000000
   36      -13.251940   1.000000
   37      -10.253775   1.000000
   38      -10.243035   1.000000
   39      -10.201637   1.000000
   40      -10.093394   1.000000
   41      -10.092328   1.000000
   42      -10.047999   1.000000
   43      -10.036478   1.000000
   44       -9.990681   1.000000
   45       -9.887495   1.000000
   46       -9.858939   1.000000
   47       -9.772970   1.000000
   48       -9.617551   1.000000
   49       -9.519608   1.000000
   50       -9.337458   1.000000
   51       -9.327636   1.000000
   52       -9.100171   1.000000
   53       -9.072479   1.000000
   54       -8.972141   1.000000
   55       -8.916004   1.000000
   56       -8.649819   1.000000
   57       -8.617768   1.000000
   58       -8.506172   1.000000
   59       -8.398038   1.000000
   60       -8.372155   1.000000
   61       -5.787062   1.000000
   62       -5.712937   1.000000
   63       -5.636645   1.000000
   64       -5.591992   1.000000
   65       -5.564484   1.000000
   66       -5.451323   1.000000
   67       -5.427307   1.000000
   68       -5.329865   1.000000
   69       -5.226855   1.000000
   70       -5.155556   1.000000
   71       -5.124820   1.000000
   72       -5.032564   1.000000
   73       -4.987831   1.000000
   74       -4.939504   1.000000
   75       -4.874790   1.000000
   76       -4.860910   1.000000
   77       -4.732868   1.000000
   78       -4.575993   1.000000
   79       -4.542981   1.000000
   80       -4.532785   1.000000
   81       -4.511965   1.000000
   82       -4.444457   1.000000
   83       -4.398716   1.000000
   84       -4.356728   1.000000
   85       -4.331351   1.000000
   86       -4.297648   1.000000
   87       -4.278256   1.000000
   88       -4.223828   1.000000
   89       -4.180463   1.000000
   90       -4.159874   1.000000
   91       -4.120738   1.000000
   92       -4.106937   1.000000
   93       -4.057953   1.000000
   94       -4.002036   1.000000
   95       -3.983180   1.000000
   96       -3.962375   1.000000
   97       -3.896218   1.000000
   98       -3.827387   1.000000
   99       -3.805224   1.000000
  100       -3.760030   1.000000
  101       -3.720169   1.000000
  102       -3.672533   1.000000
  103       -3.627714   1.000000
  104       -3.587748   1.000000
  105       -3.528687   1.000000
  106       -3.512850   1.000000
  107       -3.495666   1.000000
  108       -3.414332   1.000000
  109       -3.407256   1.000000
  110       -3.379897   1.000000
  111       -3.359106   1.000000
  112       -3.333158   1.000000
  113       -3.326485   1.000000
  114       -3.265638   1.000000
  115       -3.228950   1.000000
  116       -3.221177   1.000000
  117       -3.167711   1.000000
  118       -3.155276   1.000000
  119       -3.137763   1.000000
  120       -3.110098   1.000000
  121       -3.078852   1.000000
  122       -3.041950   1.000000
  123       -3.022732   1.000000
  124       -2.964245   1.000000
  125       -2.897688   1.000000
  126       -2.843602   1.000000
  127       -2.790919   1.000000
  128       -2.710365   1.000000
  129       -2.694260   1.000000
  130       -2.686924   1.000000
  131       -2.642578   1.000000
  132       -2.562860   1.000000
  133       -2.521651   1.000000
  134       -2.513085   1.000000
  135       -2.499830   1.000000
  136       -2.458396   1.000000
  137       -2.427667   1.000000
  138       -2.415060   1.000000
  139       -2.338419   1.000000
  140       -2.297704   1.000000
  141       -2.255549   1.000000
  142       -2.174799   1.000000
  143       -2.154809   1.000000
  144       -2.122575   1.000000
  145       -2.102729   1.000000
  146       -2.060493   1.000000
  147       -2.038625   1.000000
  148       -2.006408   1.000000
  149       -2.004172   1.000000
  150       -1.978152   1.000000
  151       -1.956551   1.000001
  152       -1.909401   1.000003
  153       -1.853042   1.000019
  154       -1.811842   1.000065
  155       -1.772837   1.000190
  156       -1.751984   1.000326
  157       -1.672333   1.002050
  158       -1.652149   1.003081
  159       -1.632615   1.004461
  160       -1.607828   1.006894
  161       -1.550753   1.016031
  162       -1.509148   1.025305
  163       -1.489066   1.029762
  164       -1.458551   1.034699
  165       -1.415703   1.031813
  166       -1.357480   0.988302
  167       -1.330492   0.944469
  168       -1.319767   0.922108
  169       -0.359015  -0.000000
  170       -0.317913  -0.000000
  171       -0.173459  -0.000000
  172       -0.113513  -0.000000
  173       -0.081915  -0.000000
  174        0.013128  -0.000000
  175        0.041269  -0.000000
  176        0.184596  -0.000000
  177        0.259491  -0.000000
  178        0.306500  -0.000000
  179        0.319829  -0.000000
  180        0.338690  -0.000000
  181        0.370846  -0.000000
  182        0.390795  -0.000000
  183        0.411997  -0.000000
  184        0.460025  -0.000000
  185        0.470881  -0.000000
  186        0.557878  -0.000000
  187        0.592719  -0.000000
  188        0.635494  -0.000000
  189        0.663623  -0.000000
  190        0.679260  -0.000000
  191        0.730721  -0.000000
  192        0.762512  -0.000000
  193        0.812824  -0.000000
  194        0.824129  -0.000000
  195        0.861798  -0.000000
  196        0.879779  -0.000000
  197        0.911171  -0.000000
  198        0.925632  -0.000000
  199        0.972661  -0.000000
  200        1.051062  -0.000000
  201        1.083154  -0.000000
  202        1.125681  -0.000000
  203        1.161523  -0.000000
  204        1.183674  -0.000000
  205        1.231638  -0.000000
  206        1.270301  -0.000000
  207        1.291592  -0.000000
  208        1.317850  -0.000000
  209        1.346271  -0.000000
  210        1.424932  -0.000000
  211        1.456693  -0.000000
  212        1.499078  -0.000000
  213        1.578187  -0.000000
  214        1.594535  -0.000000
  215        1.657351  -0.000000
  216        1.770457  -0.000000
  217        1.823302  -0.000000
  218        1.882476  -0.000000
  219        1.962247  -0.000000
  220        1.993443  -0.000000
  221        2.076915  -0.000000
  222        2.099661  -0.000000
  223        2.145492  -0.000000
  224        2.184309  -0.000000
  225        2.212650  -0.000000
  226        2.246267  -0.000000
  227        2.266657  -0.000000
  228        2.288277  -0.000000
  229        2.314414  -0.000000
  230        2.331821  -0.000000
  231        2.354461  -0.000000
  232        2.413986  -0.000000
  233        2.427172  -0.000000
  234        2.529595  -0.000000
  235        2.568174  -0.000000
  236        2.807965  -0.000000
  237        2.824872  -0.000000
  238        2.897804  -0.000000
  239        3.012133  -0.000000
  240        3.070729  -0.000000
  241        3.238064  -0.000000
  242        3.287548  -0.000000
  243        3.388267  -0.000000
  244        3.408883  -0.000000
  245        3.438845  -0.000000
  246        3.546942  -0.000000
  247        3.595007  -0.000000
  248        3.809478  -0.000000
  249        3.873734  -0.000000
  250        3.928259  -0.000000
  251        3.981351  -0.000000
  252        4.002233  -0.000000
  253        4.157494  -0.000000
  254        4.331621   0.000000
  255        4.374126   0.000000
  256        4.380656   0.000000
 
  0.1538462E+00  0.3087420E-32  0.0000000E+00  0.3846154E-01
    1      -15.041630   1.000000
    2      -14.999203   1.000000
    3      -14.910932   1.000000
    4      -14.867618   1.000000
    5      -14.832155   1.000000
    6      -14.798397   1.000000
    7      -14.689376   1.000000
    8      -14.639681   1.000000
    9      -14.590217   1.000000
   10      -14.558997   1.000000
   11      -14.451258   1.000000
   12      -14.390591   1.000000
   13      -14.259683   1.000000
   14      -14.164328   1.000000
   15      -14.103878   1.000000
   16      -14.004450   1.000000
   17      -13.988013   1.000000
   18      -13.881179   1.000000
   19      -13.844570   1.000000
   20      -13.748399   1.000000
   21      -13.681858   1.000000
   22      -13.674035   1.000000
   23      -13.567280   1.000000
   24      -13.550244   1.000000
   25      -13.535856   1.000000
   26      -13.521545   1.000000
   27      -13.502184   1.000000
   28      -13.492376   1.000000
   29      -13.430770   1.000000
   30      -13.420237   1.000000
   31      -13.411450   1.000000
   32      -13.387213   1.000000
   33      -13.374592   1.000000
   34      -13.341802   1.000000
   35      -13.329019   1.000000
   36      -13.237562   1.000000
   37      -10.298284   1.000000
   38      -10.284355   1.000000
   39      -10.209656   1.000000
   40      -10.152898   1.000000
   41      -10.140598   1.000000
   42      -10.090701   1.000000
   43      -10.065924   1.000000
   44      -10.001835   1.000000
   45       -9.913637   1.000000
   46       -9.878702   1.000000
   47       -9.802796   1.000000
   48       -9.661531   1.000000
   49       -9.560725   1.000000
   50       -9.389873   1.000000
   51       -9.380108   1.000000
   52       -9.173506   1.000000
   53       -9.142355   1.000000
   54       -9.064006   1.000000
   55       -9.012036   1.000000
   56       -8.785390   1.000000
   57       -8.752314   1.000000
   58       -8.668972   1.000000
   59       -8.567805   1.000000
   60       -8.544357   1.000000
   61       -5.734347   1.000000
   62       -5.643195   1.000000
   63       -5.559791   1.000000
   64       -5.539395   1.000000
   65       -5.518810   1.000000
   66       -5.418992   1.000000
   67       -5.398952   1.000000
   68       -5.374360   1.000000
   69       -5.352073   1.000000
   70       -5.300840   1.000000
   71       -5.259469   1.000000
   72       -5.214373   1.000000
   73       -5.188669   1.000000
   74       -5.154384   1.000000
   75       -5.121452   1.000000
   76       -5.081745   1.000000
   77       -5.035163   1.000000
   78       -4.930255   1.000000
   79       -4.905685   1.000000
   80       -4.847128   1.000000
   81       -4.841043   1.000000
   82       -4.809050   1.000000
   83       -4.777857   1.000000
   84       -4.721534   1.000000
   85       -4.595083   1.000000
   86       -4.572603   1.000000
   87       -4.552603   1.000000
   88       -4.522693   1.000000
   89       -4.456034   1.000000
   90       -4.409930   1.000000
   91       -4.306909   1.000000
   92       -4.278914   1.000000
   93       -4.260588   1.000000
   94       -4.192610   1.000000
   95       -4.151184   1.000000
   96       -4.137627   1.000000
   97       -4.085090   1.000000
   98       -4.046150   1.000000
   99       -3.999668   1.000000
  100       -3.932779   1.000000
  101       -3.929789   1.000000
  102       -3.833615   1.000000
  103       -3.807154   1.000000
  104       -3.768418   1.000000
  105       -3.722720   1.000000
  106       -3.658637   1.000000
  107       -3.632962   1.000000
  108       -3.614121   1.000000
  109       -3.591271   1.000000
  110       -3.573775   1.000000
  111       -3.535153   1.000000
  112       -3.507777   1.000000
  113       -3.491296   1.000000
  114       -3.470557   1.000000
  115       -3.444494   1.000000
  116       -3.392875   1.000000
  117       -3.383321   1.000000
  118       -3.368065   1.000000
  119       -3.349883   1.000000
  120       -3.318286   1.000000
  121       -3.217499   1.000000
  122       -3.118016   1.000000
  123       -3.099836   1.000000
  124       -3.084925   1.000000
  125       -3.039530   1.000000
  126       -2.949239   1.000000
  127       -2.939572   1.000000
  128       -2.887421   1.000000
  129       -2.852952   1.000000
  130       -2.753354   1.000000
  131       -2.743285   1.000000
  132       -2.678994   1.000000
  133       -2.667742   1.000000
  134       -2.617771   1.000000
  135       -2.543231   1.000000
  136       -2.534353   1.000000
  137       -2.487928   1.000000
  138       -2.438059   1.000000
  139       -2.399213   1.000000
  140       -2.331955   1.000000
  141       -2.236177   1.000000
  142       -2.156561   1.000000
  143       -2.141374   1.000000
  144       -2.074825   1.000000
  145       -2.058945   1.000000
  146       -2.045938   1.000000
  147       -2.012580   1.000000
  148       -2.006088   1.000000
  149       -1.974592   1.000000
  150       -1.930841   1.000001
  151       -1.913568   1.000003
  152       -1.866512   1.000012
  153       -1.838792   1.000029
  154       -1.808771   1.000071
  155       -1.783996   1.000141
  156       -1.738357   1.000458
  157       -1.721252   1.000692
  158       -1.698535   1.001166
  159       -1.668356   1.002226
  160       -1.660283   1.002622
  161       -1.591780   1.008944
  162       -1.548707   1.016450
  163       -1.522570   1.022203
  164       -1.498388   1.027750
  165       -1.483940   1.030801
  166       -1.432564   1.034935
  167       -1.297599   0.866701
  168       -1.282073   0.820679
  169       -0.178856  -0.000000
  170       -0.027755  -0.000000
  171        0.099223  -0.000000
  172        0.140753  -0.000000
  173        0.172223  -0.000000
  174        0.206913  -0.000000
  175        0.234837  -0.000000
  176        0.280216  -0.000000
  177        0.343529  -0.000000
  178        0.415447  -0.000000
  179        0.438947  -0.000000
  180        0.496026  -0.000000
  181        0.541925  -0.000000
  182        0.566695  -0.000000
  183        0.603615  -0.000000
  184        0.660330  -0.000000
  185        0.666740  -0.000000
  186        0.682216  -0.000000
  187        0.725919  -0.000000
  188        0.761711  -0.000000
  189        0.814887  -0.000000
  190        0.843462  -0.000000
  191        0.883718  -0.000000
  192        0.898892  -0.000000
  193        0.925593  -0.000000
  194        0.972018  -0.000000
  195        0.986613  -0.000000
  196        1.003354  -0.000000
  197        1.087003  -0.000000
  198        1.112222  -0.000000
  199        1.143104  -0.000000
  200        1.159181  -0.000000
  201        1.182949  -0.000000
  202        1.202207  -0.000000
  203        1.214553  -0.000000
  204        1.233807  -0.000000
  205        1.322305  -0.000000
  206        1.330918  -0.000000
  207        1.443646  -0.000000
  208        1.467447  -0.000000
  209        1.552401  -0.000000
  210        1.611554  -0.000000
  211        1.667747  -0.000000
  212        1.692176  -0.000000
  213        1.762850  -0.000000
  214        1.816523  -0.000000
  215        1.824028  -0.000000
  216        1.857483  -0.000000
  217        1.902493  -0.000000
  218        1.929233  -0.000000
  219        1.956597  -0.000000
  220        2.010080  -0.000000
  221        2.105299  -0.000000
  222        2.126855  -0.000000
  223        2.161478  -0.000000
  224        2.217824  -0.000000
  225        2.236924  -0.000000
  226        2.310429  -0.000000
  227        2.401086  -0.000000
  228        2.406398  -0.000000
  229        2.468462  -0.000000
  230        2.491287  -0.000000
  231        2.548397  -0.000000
  232        2.650306  -0.000000
  233        2.712384  -0.000000
  234        2.757257  -0.000000
  235        2.775434  -0.000000
  236        2.795241  -0.000000
  237        2.828566  -0.000000
  238        2.893812  -0.000000
  239        2.913716  -0.000000
  240        2.934093  -0.000000
  241        3.559077  -0.000000
  242        3.594572  -0.000000
  243        3.726176  -0.000000
  244        3.758551  -0.000000
  245        3.887067  -0.000000
  246        3.973989  -0.000000
  247        3.988043  -0.000000
  248        4.029440  -0.000000
  249        4.039525  -0.000000
  250        4.107567  -0.000000
  251        4.149189  -0.000000
  252        4.164827  -0.000000
  253        4.318484   0.000000
  254        4.483721   0.000000
  255        4.540557   0.000000
  256        4.554444   0.000000
 
  0.2307692E+00  0.1912619E-31  0.0000000E+00  0.3846154E-01
    1      -14.865113   1.000000
    2      -14.825858   1.000000
    3      -14.742249   1.000000
    4      -14.699171   1.000000
    5      -14.663150   1.000000
    6      -14.632430   1.000000
    7      -14.525631   1.000000
    8      -14.477452   1.000000
    9      -14.435892   1.000000
   10      -14.398419   1.000000
   11      -14.298243   1.000000
   12      -14.244583   1.000000
   13      -14.119693   1.000000
   14      -14.040792   1.000000
   15      -13.971521   1.000000
   16      -13.893313   1.000000
   17      -13.863156   1.000000
   18      -13.778280   1.000000
   19      -13.738665   1.000000
   20      -13.669800   1.000000
   21      -13.593801   1.000000
   22      -13.587508   1.000000
   23      -13.511962   1.000000
   24      -13.508284   1.000000
   25      -13.494482   1.000000
   26      -13.482483   1.000000
   27      -13.467299   1.000000
   28      -13.448799   1.000000
   29      -13.409292   1.000000
   30      -13.369887   1.000000
   31      -13.365359   1.000000
   32      -13.332531   1.000000
   33      -13.325217   1.000000
   34      -13.295920   1.000000
   35      -13.286692   1.000000
   36      -13.226283   1.000000
   37      -10.374605   1.000000
   38      -10.345281   1.000000
   39      -10.247851   1.000000
   40      -10.231892   1.000000
   41      -10.211985   1.000000
   42      -10.162145   1.000000
   43      -10.114371   1.000000
   44      -10.029879   1.000000
   45       -9.972194   1.000000
   46       -9.921872   1.000000
   47       -9.851255   1.000000
   48       -9.741364   1.000000
   49       -9.642295   1.000000
   50       -9.492593   1.000000
   51       -9.475825   1.000000
   52       -9.304517   1.000000
   53       -9.273909   1.000000
   54       -9.227339   1.000000
   55       -9.183959   1.000000
   56       -9.019022   1.000000
   57       -8.979681   1.000000
   58       -8.936225   1.000000
   59       -8.841450   1.000000
   60       -8.822920   1.000000
   61       -5.821111   1.000000
   62       -5.794382   1.000000
   63       -5.729148   1.000000
   64       -5.624406   1.000000
   65       -5.623010   1.000000
   66       -5.585599   1.000000
   67       -5.560217   1.000000
   68       -5.529571   1.000000
   69       -5.492480   1.000000
   70       -5.466604   1.000000
   71       -5.430149   1.000000
   72       -5.413644   1.000000
   73       -5.369230   1.000000
   74       -5.333634   1.000000
   75       -5.303687   1.000000
   76       -5.285208   1.000000
   77       -5.277262   1.000000
   78       -5.228303   1.000000
   79       -5.186816   1.000000
   80       -5.106023   1.000000
   81       -5.036267   1.000000
   82       -5.012610   1.000000
   83       -4.994972   1.000000
   84       -4.911790   1.000000
   85       -4.868523   1.000000
   86       -4.810100   1.000000
   87       -4.756603   1.000000
   88       -4.641846   1.000000
   89       -4.622075   1.000000
   90       -4.597209   1.000000
   91       -4.578778   1.000000
   92       -4.538017   1.000000
   93       -4.513670   1.000000
   94       -4.428926   1.000000
   95       -4.377715   1.000000
   96       -4.353746   1.000000
   97       -4.302054   1.000000
   98       -4.295697   1.000000
   99       -4.132741   1.000000
  100       -4.111570   1.000000
  101       -4.050285   1.000000
  102       -4.021001   1.000000
  103       -3.999400   1.000000
  104       -3.986112   1.000000
  105       -3.969123   1.000000
  106       -3.939659   1.000000
  107       -3.882726   1.000000
  108       -3.870223   1.000000
  109       -3.856871   1.000000
  110       -3.803957   1.000000
  111       -3.791158   1.000000
  112       -3.755155   1.000000
  113       -3.729005   1.000000
  114       -3.648206   1.000000
  115       -3.631586   1.000000
  116       -3.595474   1.000000
  117       -3.533937   1.000000
  118       -3.457557   1.000000
  119       -3.360293   1.000000
  120       -3.347610   1.000000
  121       -3.298871   1.000000
  122       -3.263196   1.000000
  123       -3.205053   1.000000
  124       -3.195635   1.000000
  125       -3.165685   1.000000
  126       -3.051863   1.000000
  127       -3.012225   1.000000