       N       E                     dE             d eps       ncg     rms          rms(c)
DAV:   1     0.177470594806E+04    0.17747E+04   -0.85217E+04 10752   0.626E+02
DAV:   2    -0.341324437417E+02   -0.18088E+04   -0.17766E+04 14592   0.145E+02
DAV:   3    -0.242930380453E+03   -0.20880E+03   -0.20709E+03 16128   0.563E+01
DAV:   4    -0.246632686232E+03   -0.37023E+01   -0.36997E+01 12800   0.947E+00
DAV:   5    -0.246702184206E+03   -0.69498E-01   -0.69494E-01 15744   0.127E+00    0.131E+01
RMM:   6    -0.238308152858E+03    0.83940E+01   -0.13236E+01 10752   0.350E+00    0.544E+00
RMM:   7    -0.237997325248E+03    0.31083E+00   -0.10757E+00 10752   0.117E+00    0.287E+00
RMM:   8    -0.237981616552E+03    0.15709E-01   -0.32407E-01 10752   0.763E-01    0.738E-01
RMM:   9    -0.237944554520E+03    0.37062E-01   -0.53580E-02 10752   0.247E-01    0.381E-01
RMM:  10    -0.237936151206E+03    0.84033E-02   -0.94780E-03 10757   0.112E-01    0.201E-01
RMM:  11    -0.237939758956E+03   -0.36078E-02   -0.50157E-03 10752   0.875E-02    0.107E-01
RMM:  12    -0.237942337648E+03   -0.25787E-02   -0.12170E-03 10752   0.333E-02    0.129E-01
RMM:  13    -0.237939919459E+03    0.24182E-02   -0.51016E-04 10752   0.218E-02    0.465E-02
RMM:  14    -0.237941407929E+03   -0.14885E-02   -0.60067E-04 10752   0.264E-02    0.287E-02
RMM:  15    -0.237942291655E+03   -0.88373E-03   -0.21629E-04 10747   0.142E-02    0.177E-02
RMM:  16    -0.237943268911E+03   -0.97726E-03   -0.15719E-04 10441   0.107E-02    0.110E-02
RMM:  17    -0.237944126712E+03   -0.85780E-03   -0.13239E-04 10006   0.895E-03    0.643E-03
RMM:  18    -0.237944506456E+03   -0.37974E-03   -0.43400E-05  9457   0.472E-03    0.431E-03
RMM:  19    -0.237944815579E+03   -0.30912E-03   -0.31394E-05  9281   0.406E-03    0.249E-03
RMM:  20    -0.237944947244E+03   -0.13166E-03   -0.10626E-05  8281   0.214E-03    0.160E-03
RMM:  21    -0.237945035624E+03   -0.88380E-04   -0.48690E-06  7122   0.140E-03    0.971E-04
RMM:  22    -0.237945086743E+03   -0.51119E-04   -0.21875E-06  6429   0.942E-04    0.583E-04
RMM:  23    -0.237945115576E+03   -0.28833E-04   -0.77778E-07  5637   0.645E-04    0.330E-04
RMM:  24    -0.237945130907E+03   -0.15331E-04   -0.41268E-07  5345   0.531E-04    0.174E-04
RMM:  25    -0.237945136785E+03   -0.58781E-05   -0.10496E-07  4285   0.358E-04    0.103E-04
RMM:  26    -0.237945140262E+03   -0.34773E-05   -0.51562E-08  3795   0.318E-04    0.593E-05
RMM:  27    -0.237945141983E+03   -0.17205E-05   -0.21045E-08  3249   0.295E-04    0.338E-05
RMM:  28    -0.237945142876E+03   -0.89344E-06   -0.12602E-08  2917   0.286E-04
   1 F= -.23794514E+03 E0= -.23796556E+03  d E =-.237945E+03
       N       E                     dE             d eps       ncg     rms          rms(c)
DAV:   1    -0.238365227638E+03   -0.42009E+00   -0.18439E+01 14208   0.506E+00    0.740E-01
RMM:   2    -0.238407324487E+03   -0.42097E-01   -0.76447E-01 10752   0.107E+00    0.366E-01
RMM:   3    -0.238402565958E+03    0.47585E-02   -0.20041E-02 10754   0.187E-01    0.234E-01
RMM:   4    -0.238411933454E+03   -0.93675E-02   -0.73691E-03 10761   0.870E-02    0.225E-01
RMM:   5    -0.238400609900E+03    0.11324E-01   -0.24153E-03 10752   0.481E-02    0.867E-02
RMM:   6    -0.238400081423E+03    0.52848E-03   -0.62686E-04 10792   0.219E-02    0.559E-02
RMM:   7    -0.238399991021E+03    0.90402E-04   -0.11176E-04 10740   0.110E-02    0.323E-02
RMM:   8    -0.238400078426E+03   -0.87405E-04   -0.82469E-05 10742   0.935E-03    0.196E-02
RMM:   9    -0.238400129754E+03   -0.51328E-04   -0.23226E-05  9996   0.472E-03    0.865E-03
RMM:  10    -0.238400237395E+03   -0.10764E-03   -0.13770E-05  9431   0.351E-03    0.576E-03
RMM:  11    -0.238400334612E+03   -0.97217E-04   -0.11332E-05  9078   0.288E-03    0.410E-03
RMM:  12    -0.238400443671E+03   -0.10906E-03   -0.15628E-05  9130   0.314E-03    0.244E-03
RMM:  13    -0.238400519024E+03   -0.75353E-04   -0.10537E-05  8358   0.233E-03    0.165E-03
RMM:  14    -0.238400568278E+03   -0.49254E-04   -0.69726E-06  7595   0.177E-03    0.959E-04
RMM:  15    -0.238400592727E+03   -0.24448E-04   -0.28622E-06  6737   0.112E-03    0.504E-04
RMM:  16    -0.238400606863E+03   -0.14137E-04   -0.15318E-06  6026   0.823E-04    0.293E-04
RMM:  17    -0.238400612153E+03   -0.52897E-05   -0.41366E-07  5091   0.512E-04    0.167E-04
RMM:  18    -0.238400614957E+03   -0.28043E-05   -0.16519E-07  4540   0.398E-04    0.104E-04
RMM:  19    -0.238400616940E+03   -0.19824E-05   -0.10717E-07  4290   0.354E-04    0.611E-05
RMM:  20    -0.238400617706E+03   -0.76578E-06   -0.27612E-08  3448   0.296E-04
   2 F= -.23840062E+03 E0= -.23842062E+03  d E =-.455475E+00
       N       E                     dE             d eps       ncg     rms          rms(c)
DAV:   1    -0.238445166313E+03   -0.44549E-01   -0.35087E+00 12288   0.227E+00    0.329E-01
RMM:   2    -0.238452002220E+03   -0.68359E-02   -0.14175E-01 10752   0.476E-01    0.166E-01
RMM:   3    -0.238451903428E+03    0.98792E-04   -0.41844E-03 10755   0.842E-02    0.129E-01
RMM:   4    -0.238452943319E+03   -0.10399E-02   -0.12208E-03 10790   0.347E-02    0.138E-01
RMM:   5    -0.238450380290E+03    0.25630E-02   -0.92065E-04 10752   0.299E-02    0.286E-02
RMM:   6    -0.238450360195E+03    0.20095E-04   -0.86230E-05 10741   0.980E-03    0.167E-02
RMM:   7    -0.238450374390E+03   -0.14195E-04   -0.21519E-05 10233   0.467E-03    0.121E-02
RMM:   8    -0.238450404905E+03   -0.30515E-04   -0.14013E-05  9928   0.397E-03    0.523E-03
RMM:   9    -0.238450436433E+03   -0.31528E-04   -0.39153E-06  8329   0.207E-03    0.334E-03
RMM:  10    -0.238450469138E+03   -0.32705E-04   -0.27979E-06  7862   0.150E-03    0.232E-03
RMM:  11    -0.238450508940E+03   -0.39802E-04   -0.43096E-06  7984   0.160E-03    0.133E-03
RMM:  12    -0.238450538722E+03   -0.29782E-04   -0.33063E-06  7337   0.130E-03    0.848E-04
RMM:  13    -0.238450562360E+03   -0.23638E-04   -0.29473E-06  6901   0.113E-03    0.434E-04
RMM:  14    -0.238450571212E+03   -0.88519E-05   -0.82686E-07  5481   0.645E-04    0.286E-04
RMM:  15    -0.238450577849E+03   -0.66369E-05   -0.61024E-07  5501   0.583E-04    0.165E-04
RMM:  16    -0.238450581142E+03   -0.32928E-05   -0.30349E-07  4845   0.446E-04    0.928E-05
RMM:  17    -0.238450582737E+03   -0.15953E-05   -0.12812E-07  4280   0.362E-04    0.552E-05
RMM:  18    -0.238450583606E+03   -0.86872E-06   -0.57226E-08  3762   0.319E-04
   3 F= -.23845058E+03 E0= -.23847015E+03  d E =-.505441E+00
       N       E                     dE             d eps       ncg     rms          rms(c)
DAV:   1    -0.238541772877E+03   -0.91190E-01   -0.80543E+00 10752   0.344E+00    0.449E-01
RMM:   2    -0.238567890990E+03   -0.26118E-01   -0.33240E-01 10752   0.722E-01    0.174E-01
RMM:   3    -0.238566553872E+03    0.13371E-02   -0.72898E-03 10756   0.116E-01    0.116E-01
RMM:   4    -0.238569578225E+03   -0.30244E-02   -0.17580E-03 10759   0.442E-02    0.148E-01
RMM:   5    -0.238565846924E+03    0.37313E-02   -0.99608E-04 10752   0.290E-02    0.331E-02
RMM:   6    -0.238565765392E+03    0.81532E-04   -0.81094E-05 10773   0.938E-03    0.189E-02
RMM:   7    -0.238565754328E+03    0.11064E-04   -0.28431E-05 10420   0.507E-03    0.133E-02
RMM:   8    -0.238565753574E+03    0.75347E-06   -0.15078E-05 10002   0.393E-03    0.630E-03
RMM:   9    -0.238565764258E+03   -0.10684E-04   -0.35555E-06  8607   0.209E-03    0.356E-03
RMM:  10    -0.238565781387E+03   -0.17128E-04   -0.14219E-06  7512   0.133E-03    0.224E-03
RMM:  11    -0.238565804185E+03   -0.22799E-04   -0.19386E-06  7700   0.124E-03    0.111E-03
RMM:  12    -0.238565821263E+03   -0.17078E-04   -0.12578E-06  6826   0.894E-04    0.705E-04
RMM:  13    -0.238565836461E+03   -0.15198E-04   -0.12574E-06  6347   0.789E-04    0.434E-04
RMM:  14    -0.238565845473E+03   -0.90119E-05   -0.71368E-07  5635   0.622E-04    0.244E-04
RMM:  15    -0.238565850778E+03   -0.53051E-05   -0.42471E-07  5257   0.509E-04    0.152E-04
RMM:  16    -0.238565853996E+03   -0.32174E-05   -0.25942E-07  4783   0.423E-04    0.795E-05
RMM:  17    -0.238565855504E+03   -0.15078E-05   -0.11148E-07  4165   0.346E-04    0.519E-05
RMM:  18    -0.238565856350E+03   -0.84646E-06   -0.52352E-08  3700   0.318E-04
   4 F= -.23856586E+03 E0= -.23858581E+03  d E =-.115273E+00
       N       E                     dE             d eps       ncg     rms          rms(c)
DAV:   1    -0.238577929813E+03   -0.12074E-01   -0.64071E+00 10752   0.306E+00    0.400E-01
RMM:   2    -0.238599092123E+03   -0.21162E-01   -0.26575E-01 10752   0.641E-01    0.157E-01
RMM:   3    -0.238599355415E+03   -0.26329E-03   -0.60903E-03 10758   0.105E-01    0.135E-01
RMM:   4    -0.238599408367E+03   -0.52952E-04   -0.11746E-03 10752   0.361E-02    0.124E-01
RMM:   5    -0.238597426483E+03    0.19819E-02   -0.10961E-03 10752   0.315E-02    0.339E-02
RMM:   6    -0.238597301604E+03    0.12488E-03   -0.90920E-05 10752   0.989E-03    0.169E-02
RMM:   7    -0.238597291182E+03    0.10422E-04   -0.20002E-05 10146   0.445E-03    0.108E-02
RMM:   8    -0.238597295358E+03   -0.41763E-05   -0.13718E-05  9905   0.377E-03    0.526E-03
RMM:   9    -0.238597304137E+03   -0.87784E-05   -0.23915E-06  7998   0.183E-03    0.289E-03
RMM:  10    -0.238597317919E+03   -0.13782E-04   -0.10551E-06  7344   0.116E-03    0.178E-03
RMM:  11    -0.238597336610E+03   -0.18692E-04   -0.15156E-06  7425   0.109E-03    0.946E-04
RMM:  12    -0.238597351197E+03   -0.14587E-04   -0.11027E-06  6642   0.827E-04    0.593E-04
RMM:  13    -0.238597363119E+03   -0.11921E-04   -0.97203E-07  5973   0.697E-04    0.338E-04
RMM:  14    -0.238597369718E+03   -0.65994E-05   -0.51009E-07  5415   0.551E-04    0.206E-04
RMM:  15    -0.238597373914E+03   -0.41965E-05   -0.33810E-07  5093   0.469E-04    0.120E-04
RMM:  16    -0.238597376384E+03   -0.24694E-05   -0.19566E-07  4541   0.390E-04    0.644E-05
RMM:  17    -0.238597377620E+03   -0.12364E-05   -0.87393E-08  3986   0.337E-04    0.367E-05
RMM:  18    -0.238597378265E+03   -0.64443E-06   -0.41863E-08  3528   0.315E-04
   5 F= -.23859738E+03 E0= -.23861678E+03  d E =-.146795E+00
       N       E                     dE             d eps       ncg     rms          rms(c)
DAV:   1    -0.238629660062E+03   -0.32282E-01   -0.38341E+00 11264   0.245E+00    0.316E-01
RMM:   2    -0.238641988586E+03   -0.12329E-01   -0.15120E-01 10752   0.510E-01    0.122E-01
RMM:   3    -0.238641449072E+03    0.53951E-03   -0.32983E-03 10756   0.825E-02    0.781E-02
RMM:   4    -0.238643652652E+03   -0.22036E-02   -0.95436E-04 10757   0.325E-02    0.115E-01
RMM:   5    -0.238641269849E+03    0.23828E-02   -0.45918E-04 10765   0.193E-02    0.294E-02
RMM:   6    -0.238641167309E+03    0.10254E-03   -0.61717E-05 10742   0.727E-03    0.136E-02
RMM:   7    -0.238641157384E+03    0.99251E-05   -0.10441E-05  9807   0.343E-03    0.728E-03
RMM:   8    -0.238641160461E+03   -0.30773E-05   -0.57041E-06  9415   0.281E-03    0.258E-03
RMM:   9    -0.238641166188E+03   -0.57265E-05   -0.75461E-07  7157   0.118E-03    0.165E-03
RMM:  10    -0.238641172412E+03   -0.62242E-05   -0.42719E-07  6796   0.717E-04    0.106E-03
RMM:  11    -0.238641181131E+03   -0.87189E-05   -0.63791E-07  6834   0.718E-04    0.594E-04
RMM:  12    -0.238641188455E+03   -0.73239E-05   -0.46478E-07  5555   0.552E-04    0.390E-04
RMM:  13    -0.238641195132E+03   -0.66773E-05   -0.56142E-07  5666   0.562E-04    0.199E-04
RMM:  14    -0.238641198853E+03   -0.37209E-05   -0.31155E-07  4876   0.456E-04    0.116E-04
RMM:  15    -0.238641200887E+03   -0.20343E-05   -0.19065E-07  4452   0.390E-04    0.620E-05
RMM:  16    -0.238641201720E+03   -0.83213E-06   -0.77244E-08  3799   0.330E-04
   6 F= -.23864120E+03 E0= -.23866069E+03  d E =-.438235E-01
       N       E                     dE             d eps       ncg     rms          rms(c)
DAV:   1    -0.238638663587E+03    0.25373E-02   -0.96813E+00 10752   0.389E+00    0.502E-01
RMM:   2    -0.238670241380E+03   -0.31578E-01   -0.38641E-01 10752   0.817E-01    0.193E-01
RMM:   3    -0.238669222304E+03    0.10191E-02   -0.84662E-03 10756   0.132E-01    0.130E-01
RMM:   4    -0.238675407960E+03   -0.61857E-02   -0.23274E-03 10758   0.497E-02    0.180E-01
RMM:   5    -0.238668266719E+03    0.71412E-02   -0.13943E-03 10752   0.350E-02    0.385E-02
RMM:   6    -0.238668165536E+03    0.10118E-03   -0.13666E-04 10771   0.116E-02    0.212E-02
RMM:   7    -0.238668147568E+03    0.17968E-04   -0.32120E-05 10549   0.554E-03    0.137E-02
RMM:   8    -0.238668147889E+03   -0.32053E-06   -0.15474E-05 10273   0.429E-03    0.534E-03
RMM:   9    -0.238668160273E+03   -0.12384E-04   -0.27194E-06  8078   0.209E-03    0.268E-03
RMM:  10    -0.238668172916E+03   -0.12643E-04   -0.97272E-07  7325   0.110E-03    0.187E-03
RMM:  11    -0.238668190201E+03   -0.17285E-04   -0.13570E-06  7415   0.103E-03    0.106E-03
RMM:  12    -0.238668205501E+03   -0.15300E-04   -0.11646E-06  6744   0.854E-04    0.698E-04
RMM:  13    -0.238668220468E+03   -0.14968E-04   -0.13381E-06  6367   0.796E-04    0.387E-04
RMM:  14    -0.238668227360E+03   -0.68911E-05   -0.54051E-07  5350   0.560E-04    0.228E-04
RMM:  15    -0.238668232520E+03   -0.51606E-05   -0.48287E-07  5349   0.524E-04    0.118E-04
RMM:  16    -0.238668234887E+03   -0.23665E-05   -0.20932E-07  4513   0.394E-04    0.697E-05
RMM:  17    -0.238668236034E+03   -0.11472E-05   -0.91530E-08  3925   0.336E-04    0.422E-05
RMM:  18    -0.238668236713E+03   -0.67894E-06   -0.55002E-08  3598   0.318E-04
   7 F= -.23866824E+03 E0= -.23868769E+03  d E =-.708584E-01
       N       E                     dE             d eps       ncg     rms          rms(c)
DAV:   1    -0.238682720608E+03   -0.14485E-01   -0.59190E+00 11008   0.304E+00    0.390E-01
RMM:   2    -0.238703238467E+03   -0.20518E-01   -0.24420E-01 10752   0.646E-01    0.162E-01
RMM:   3    -0.238708098443E+03   -0.48600E-02   -0.65294E-03 10753   0.109E-01    0.175E-01
RMM:   4    -0.238702619696E+03    0.54787E-02   -0.14157E-03 10761   0.384E-02    0.105E-01
RMM:   5    -0.238701538847E+03    0.10808E-02   -0.97255E-04 10752   0.314E-02    0.332E-02
RMM:   6    -0.238701453404E+03    0.85443E-04   -0.11986E-04 10758   0.111E-02    0.181E-02
RMM:   7    -0.238701435854E+03    0.17550E-04   -0.16095E-05 10284   0.431E-03    0.973E-03
RMM:   8    -0.238701436565E+03   -0.71088E-06   -0.12221E-05 10036   0.368E-03    0.400E-03
RMM:   9    -0.238701437843E+03   -0.12787E-05   -0.13001E-06  7214   0.162E-03    0.165E-03
RMM:  10    -0.238701439432E+03   -0.15885E-05   -0.28049E-07  6726   0.795E-04    0.949E-04
RMM:  11    -0.238701441236E+03   -0.18038E-05   -0.15579E-07  5890   0.534E-04    0.494E-04
RMM:  12    -0.238701442889E+03   -0.16531E-05   -0.95459E-08  4524   0.411E-04    0.265E-04
RMM:  13    -0.238701444414E+03   -0.15256E-05   -0.10001E-07  4383   0.385E-04    0.186E-04
RMM:  14    -0.238701445881E+03   -0.14670E-05   -0.10247E-07  4104   0.345E-04    0.962E-05
RMM:  15    -0.238701446796E+03   -0.91494E-06   -0.44673E-08  3335   0.309E-04
   8 F= -.23870145E+03 E0= -.23872022E+03  d E =-.332101E-01
       N       E                     dE             d eps       ncg     rms          rms(c)
DAV:   1    -0.238698092303E+03    0.33536E-02   -0.32964E+00 11008   0.227E+00    0.291E-01
RMM:   2    -0.238709673019E+03   -0.11581E-01   -0.13712E-01 10752   0.484E-01    0.121E-01
RMM:   3    -0.238712923923E+03   -0.32509E-02   -0.37058E-03 10754   0.817E-02    0.143E-01
RMM:   4    -0.238709336684E+03    0.35872E-02   -0.82591E-04 10761   0.290E-02    0.803E-02
RMM:   5    -0.238708708605E+03    0.62808E-03   -0.56367E-04 10752   0.239E-02    0.253E-02
RMM:   6    -0.238708660636E+03    0.47969E-04   -0.70758E-05 10744   0.856E-03    0.132E-02
RMM:   7    -0.238708652044E+03    0.85922E-05   -0.88015E-06  9686   0.324E-03    0.725E-03
RMM:   8    -0.238708652824E+03   -0.77980E-06   -0.73844E-06  9599   0.289E-03
   9 F= -.23870865E+03 E0= -.23872688E+03  d E =-.404161E-01
       N       E                     dE             d eps       ncg     rms          rms(c)
DAV:   1    -0.238712796050E+03   -0.41440E-02   -0.62347E+00 10752   0.315E+00    0.399E-01
RMM:   2    -0.238735276053E+03   -0.22480E-01   -0.26267E-01 10752   0.678E-01    0.150E-01
RMM:   3    -0.238735247898E+03    0.28154E-04   -0.59503E-03 10761   0.112E-01    0.108E-01
RMM:   4    -0.238738135456E+03   -0.28876E-02   -0.13808E-03 10790   0.392E-02    0.125E-01
RMM:   5    -0.238734843929E+03    0.32915E-02   -0.10017E-03 10753   0.318E-02    0.469E-02
RMM:   6    -0.238734377654E+03    0.46628E-03   -0.13025E-04 10775   0.106E-02    0.183E-02
RMM:   7    -0.238734355196E+03    0.22458E-04   -0.24545E-05 10494   0.471E-03    0.110E-02
RMM:   8    -0.238734356683E+03   -0.14876E-05   -0.13683E-05 10090   0.377E-03    0.514E-03
RMM:   9    -0.238734362131E+03   -0.54478E-05   -0.25961E-06  8063   0.202E-03    0.231E-03
RMM:  10    -0.238734367442E+03   -0.53108E-05   -0.67256E-07  7154   0.105E-03    0.173E-03
RMM:  11    -0.238734372858E+03   -0.54163E-05   -0.37938E-07  6589   0.655E-04    0.848E-04
RMM:  12    -0.238734380606E+03   -0.77481E-05   -0.68238E-07  6688   0.720E-04    0.483E-04
RMM:  13    -0.238734386503E+03   -0.58963E-05   -0.41955E-07  5225   0.514E-04    0.370E-04
RMM:  14    -0.238734391012E+03   -0.45089E-05   -0.39356E-07  5253   0.499E-04    0.199E-04
RMM:  15    -0.238734393440E+03   -0.24283E-05   -0.21268E-07  4635   0.404E-04    0.117E-04
RMM:  16    -0.238734395222E+03   -0.17826E-05   -0.16865E-07  4423   0.377E-04    0.640E-05
RMM:  17    -0.238734396092E+03   -0.86931E-06   -0.67983E-08  3681   0.324E-04
  10 F= -.23873440E+03 E0= -.23875267E+03  d E =-.257433E-01
       N       E                     dE             d eps       ncg     rms          rms(c)
DAV:   1    -0.238727435572E+03    0.69597E-02   -0.39908E+00 11008   0.252E+00    0.320E-01
RMM:   2    -0.238741755411E+03   -0.14320E-01   -0.16783E-01 10752   0.541E-01    0.120E-01
RMM:   3    -0.238741583199E+03    0.17221E-03   -0.37638E-03 10759   0.891E-02    0.823E-02
RMM:   4    -0.238743941876E+03   -0.23587E-02   -0.95293E-04 10801   0.323E-02    0.102E-01
RMM:   5    -0.238741386045E+03    0.25558E-02   -0.60938E-04 10755   0.242E-02    0.319E-02
RMM:   6    -0.238741187243E+03    0.19880E-03   -0.73702E-05 10805   0.791E-03    0.134E-02
RMM:   7    -0.238741180996E+03    0.62471E-05   -0.14144E-05  9875   0.363E-03    0.855E-03
RMM:   8    -0.238741181991E+03   -0.99492E-06   -0.80352E-06  9604   0.296E-03
  11 F= -.23874118E+03 E0= -.23875941E+03  d E =-.325292E-01
       N       E                     dE             d eps       ncg     rms          rms(c)
DAV:   1    -0.238734218578E+03    0.69624E-02   -0.81879E+00 10752   0.361E+00    0.431E-01
RMM:   2    -0.238764314508E+03   -0.30096E-01   -0.33841E-01 10752   0.772E-01    0.170E-01
RMM:   3    -0.238769779344E+03   -0.54648E-02   -0.89308E-03 10763   0.131E-01    0.204E-01
RMM:   4    -0.238763228268E+03    0.65511E-02   -0.15433E-03 10795   0.426E-02    0.107E-01
RMM:   5    -0.238762175182E+03    0.10531E-02   -0.13885E-03 10752   0.388E-02    0.301E-02
RMM:   6    -0.238762156589E+03    0.18593E-04   -0.88533E-05 10771   0.110E-02    0.179E-02
RMM:   7    -0.238762150292E+03    0.62971E-05   -0.19482E-05 10551   0.470E-03    0.112E-02
RMM:   8    -0.238762151364E+03   -0.10716E-05   -0.18964E-05 10499   0.451E-03    0.439E-03
RMM:   9    -0.238762153057E+03   -0.16936E-05   -0.20439E-06  7782   0.181E-03    0.209E-03
RMM:  10    -0.238762156530E+03   -0.34730E-05   -0.39992E-07  6925   0.877E-04    0.132E-03
RMM:  11    -0.238762160797E+03   -0.42665E-05   -0.46876E-07  6703   0.726E-04    0.584E-04
RMM:  12    -0.238762163965E+03   -0.31685E-05   -0.22897E-07  5180   0.479E-04    0.393E-04
RMM:  13    -0.238762167106E+03   -0.31406E-05   -0.18182E-07  4695   0.416E-04    0.242E-04
RMM:  14    -0.238762169937E+03   -0.28310E-05   -0.21819E-07  4913   0.418E-04    0.139E-04
RMM:  15    -0.238762171637E+03   -0.16997E-05   -0.10874E-07  3893   0.343E-04    0.809E-05
RMM:  16    -0.238762172862E+03   -0.12252E-05   -0.10633E-07  4002   0.347E-04    0.447E-05
RMM:  17    -0.238762173482E+03   -0.61992E-06   -0.40705E-08  3210   0.309E-04
  12 F= -.23876217E+03 E0= -.23877975E+03  d E =-.209915E-01
       N       E                     dE             d eps       ncg     rms          rms(c)
DAV:   1    -0.238761477686E+03    0.69518E-03   -0.48077E-01 13184   0.875E-01    0.103E-01
RMM:   2    -0.238763133835E+03   -0.16561E-02   -0.18612E-02 10752   0.181E-01    0.417E-02
RMM:   3    -0.238763726265E+03   -0.59243E-03   -0.53556E-04 10754   0.312E-02    0.622E-02
RMM:   4    -0.238763034806E+03    0.69146E-03   -0.10672E-04 10763   0.108E-02    0.246E-02
RMM:   5    -0.238762997333E+03    0.37473E-04   -0.72462E-05 10747   0.906E-03    0.712E-03
RMM:   6    -0.238762996224E+03    0.11089E-05   -0.51611E-06  8991   0.270E-03    0.413E-03
RMM:   7    -0.238762995822E+03    0.40248E-06   -0.88202E-07  6858   0.121E-03
  13 F= -.23876300E+03 E0= -.23878039E+03  d E =-.218138E-01
       N       E                     dE             d eps       ncg     rms          rms(c)
DAV:   1    -0.238760816046E+03    0.21802E-02   -0.49272E+00 10752   0.289E+00    0.359E-01
RMM:   2    -0.238778811265E+03   -0.17995E-01   -0.21444E-01 10752   0.625E-01    0.158E-01
RMM:   3    -0.238782875105E+03   -0.40638E-02   -0.66050E-03 10769   0.110E-01    0.148E-01
RMM:   4    -0.238777412085E+03    0.54630E-02   -0.10004E-03 10777   0.355E-02    0.842E-02
RMM:   5    -0.238778343756E+03   -0.93167E-03   -0.78655E-04 10754   0.281E-02    0.785E-02
RMM:   6    -0.238777396844E+03    0.94691E-03   -0.34921E-04 10752   0.174E-02    0.263E-02
RMM:   7    -0.238777259977E+03    0.13687E-03   -0.21547E-05 10481   0.523E-03    0.128E-02
RMM:   8    -0.238777254751E+03    0.52259E-05   -0.14029E-05 10401   0.391E-03    0.602E-03
RMM:   9    -0.238777256867E+03   -0.21160E-05   -0.56315E-06  9398   0.271E-03    0.290E-03
RMM:  10    -0.238777258993E+03   -0.21259E-05   -0.82431E-07  7077   0.118E-03    0.228E-03
RMM:  11    -0.238777261130E+03   -0.21371E-05   -0.25426E-07  6639   0.640E-04    0.104E-03
RMM:  12    -0.238777264724E+03   -0.35941E-05   -0.29630E-07  6407   0.610E-04    0.510E-04
RMM:  13    -0.238777267918E+03   -0.31941E-05   -0.16711E-07  4871   0.428E-04    0.361E-04
RMM:  14    -0.238777271101E+03   -0.31826E-05   -0.18971E-07  4786   0.413E-04    0.232E-04
RMM:  15    -0.238777273537E+03   -0.24362E-05   -0.18321E-07  4686   0.391E-04    0.121E-04
RMM:  16    -0.238777275047E+03   -0.15104E-05   -0.10124E-07  3941   0.338E-04    0.768E-05
RMM:  17    -0.238777275902E+03   -0.85477E-06   -0.69481E-08  3669   0.322E-04
  14 F= -.23877728E+03 E0= -.23879472E+03  d E =-.142801E-01
       N       E                     dE             d eps       ncg     rms          rms(c)
DAV:   1    -0.238777132161E+03    0.14289E-03   -0.17647E-01 14464   0.547E-01    0.667E-02
RMM:   2    -0.238777707027E+03   -0.57487E-03   -0.69671E-03 10752   0.113E-01    0.294E-02
RMM:   3    -0.238777921149E+03   -0.21412E-03   -0.21224E-04 10752   0.199E-02    0.363E-02
RMM:   4    -0.238777674329E+03    0.24682E-03   -0.44885E-05 10746   0.704E-03    0.176E-02
RMM:   5    -0.238777658874E+03    0.15455E-04   -0.27140E-05 10687   0.574E-03    0.565E-03
RMM:   6    -0.238777657520E+03    0.13538E-05   -0.29505E-06  8346   0.204E-03    0.272E-03
RMM:   7    -0.238777657274E+03    0.24659E-06   -0.45017E-07  6487   0.952E-04
  15 F= -.23877766E+03 E0= -.23879511E+03  d E =-.146615E-01
       N       E                     dE             d eps       ncg     rms          rms(c)
DAV:   1    -0.238779410344E+03   -0.17528E-02   -0.23555E+00 10752   0.204E+00    0.239E-01
RMM:   2    -0.238788661145E+03   -0.92508E-02   -0.10297E-01 10752   0.438E-01    0.112E-01
RMM:   3    -0.238790786706E+03   -0.21256E-02   -0.30370E-03 10760   0.765E-02    0.115E-01
RMM:   4    -0.238788202546E+03    0.25842E-02   -0.56263E-04 10764   0.255E-02    0.655E-02
RMM:   5    -0.238788031079E+03    0.17147E-03   -0.46478E-04 10752   0.237E-02    0.182E-02
RMM:   6    -0.238788015850E+03    0.15228E-04   -0.34823E-05 10765   0.647E-03    0.136E-02
RMM:   7    -0.238788000133E+03    0.15717E-04   -0.66212E-06  9521   0.283E-03    0.640E-03
RMM:   8    -0.238788000635E+03   -0.50164E-06   -0.74813E-06  9829   0.305E-03
  16 F= -.23878800E+03 E0= -.23880523E+03  d E =-.103434E-01
       N       E                     dE             d eps       ncg     rms          rms(c)
DAV:   1    -0.238785725200E+03    0.22749E-02   -0.13250E+00 10752   0.153E+00    0.179E-01
RMM:   2    -0.238790895569E+03   -0.51704E-02   -0.57855E-02 10752   0.329E-01    0.832E-02
RMM:   3    -0.238791996680E+03   -0.11011E-02   -0.16427E-03 10765   0.569E-02    0.887E-02
RMM:   4    -0.238790749338E+03    0.12473E-02   -0.31517E-04 10766   0.190E-02    0.531E-02
RMM:   5    -0.238790599827E+03    0.14951E-03   -0.28944E-04 10752   0.183E-02    0.174E-02
RMM:   6    -0.238790560286E+03    0.39541E-04   -0.27045E-05 10679   0.540E-03    0.962E-03
RMM:   7    -0.238790556178E+03    0.41078E-05   -0.36342E-06  8951   0.225E-03    0.504E-03
RMM:   8    -0.238790557649E+03   -0.14706E-05   -0.44188E-06  9313   0.238E-03    0.151E-03
RMM:   9    -0.238790558737E+03   -0.10882E-05   -0.37163E-07  6665   0.909E-04    0.846E-04
RMM:  10    -0.238790560267E+03   -0.15305E-05   -0.97521E-08  5452   0.490E-04    0.450E-04
RMM:  11    -0.238790561848E+03   -0.15808E-05   -0.81793E-08  4707   0.418E-04    0.223E-04
RMM:  12    -0.238790562994E+03   -0.11460E-05   -0.54970E-08  3796   0.348E-04    0.157E-04
RMM:  13    -0.238790564144E+03   -0.11495E-05   -0.64404E-08  3854   0.335E-04    0.105E-04
RMM:  14    -0.238790565244E+03   -0.11005E-05   -0.64094E-08  3760   0.331E-04    0.595E-05
RMM:  15    -0.238790565843E+03   -0.59880E-06   -0.47071E-08  3328   0.317E-04
  17 F= -.23879057E+03 E0= -.23880762E+03  d E =-.129086E-01
       N       E                     dE             d eps       ncg     rms          rms(c)
DAV:   1    -0.238793273081E+03   -0.27078E-02   -0.17723E+00 10752   0.178E+00    0.205E-01
RMM:   2    -0.238799969699E+03   -0.66966E-02   -0.75683E-02 10752   0.378E-01    0.941E-02
RMM:   3    -0.238800298326E+03   -0.32863E-03   -0.18449E-03 10759   0.633E-02    0.772E-02
RMM:   4    -0.238800691747E+03   -0.39342E-03   -0.42860E-04 10773   0.219E-02    0.831E-02
RMM:   5    -0.238799742760E+03    0.94899E-03   -0.37041E-04 10753   0.191E-02    0.266E-02
RMM:   6    -0.238799657953E+03    0.84807E-04   -0.52481E-05 10745   0.733E-03    0.987E-03
RMM:   7    -0.238799653048E+03    0.49044E-05   -0.53207E-06  9393   0.271E-03    0.559E-03
RMM:   8    -0.238799653438E+03   -0.38935E-06   -0.46432E-06  9288   0.243E-03
  18 F= -.23879965E+03 E0= -.23881682E+03  d E =-.908759E-02
       N       E                     dE             d eps       ncg     rms          rms(c)
DAV:   1    -0.238791804321E+03    0.78487E-02   -0.37256E+00 10752   0.258E+00    0.297E-01
RMM:   2    -0.238805880958E+03   -0.14077E-01   -0.15895E-01 10752   0.549E-01    0.137E-01
RMM:   3    -0.238806614143E+03   -0.73318E-03   -0.38862E-03 10761   0.917E-02    0.112E-01
RMM:   4    -0.238807349015E+03   -0.73487E-03   -0.90126E-04 10770   0.317E-02    0.119E-01
RMM:   5    -0.238805391315E+03    0.19577E-02   -0.77140E-04 10752   0.276E-02    0.386E-02
RMM:   6    -0.238805216217E+03    0.17510E-03   -0.10604E-04 10752   0.105E-02    0.143E-02
RMM:   7    -0.238805207329E+03    0.88881E-05   -0.11741E-05 10095   0.395E-03    0.843E-03
RMM:   8    -0.238805209883E+03   -0.25535E-05   -0.97899E-06 10113   0.345E-03    0.273E-03
RMM:   9    -0.238805213330E+03   -0.34476E-05   -0.97019E-07  7081   0.140E-03    0.135E-03
RMM:  10    -0.238805217714E+03   -0.43841E-05   -0.41938E-07  6921   0.814E-04    0.928E-04
RMM:  11    -0.238805221595E+03   -0.38803E-05   -0.26485E-07  5905   0.551E-04    0.483E-04
RMM:  12    -0.238805224947E+03   -0.33524E-05   -0.22433E-07  5395   0.484E-04    0.339E-04
RMM:  13    -0.238805228163E+03   -0.32156E-05   -0.23309E-07  4976   0.437E-04    0.218E-04
RMM:  14    -0.238805231157E+03   -0.29945E-05   -0.27927E-07  4766   0.438E-04    0.114E-04
RMM:  15    -0.238805232521E+03   -0.13636E-05   -0.12017E-07  3936   0.362E-04    0.757E-05
RMM:  16    -0.238805233350E+03   -0.82949E-06   -0.10815E-07  4045   0.356E-04
  19 F= -.23880523E+03 E0= -.23882256E+03  d E =-.146675E-01
       N       E                     dE             d eps       ncg     rms          rms(c)
DAV:   1    -0.238803377506E+03    0.18550E-02   -0.31751E+00 10752   0.232E+00    0.266E-01
RMM:   2    -0.238815298629E+03   -0.11921E-01   -0.12385E-01 10752   0.481E-01    0.136E-01
RMM:   3    -0.238822210394E+03   -0.69118E-02   -0.48157E-03 10757   0.873E-02    0.196E-01
RMM:   4    -0.238813571567E+03    0.86388E-02   -0.10507E-03 10781   0.325E-02    0.681E-02
RMM:   5    -0.238813565278E+03    0.62883E-05   -0.56589E-04 10752   0.252E-02    0.313E-02
RMM:   6    -0.238813434903E+03    0.13038E-03   -0.76256E-05 10763   0.887E-03    0.125E-02
RMM:   7    -0.238813431369E+03    0.35336E-05   -0.92982E-06  9701   0.341E-03    0.775E-03
RMM:   8    -0.238813431139E+03    0.23070E-06   -0.73137E-06  9670   0.296E-03
  20 F= -.23881343E+03 E0= -.23883072E+03  d E =-.819779E-02
