Tetradymite Slab                        
           1
     4.028518    0.000000    0.000000
     0.000000   12.836956    0.000000
     0.000000    0.000000   80.793137
   Sb   Se
  24  36
Direct configuration=     1
   0.25000000  0.86199984  0.06622613
   0.75000000  0.13800016  0.07663102
   0.75000000  0.63800016  0.13765470
   0.25000000  0.36199984  0.00520245
   0.75000000  0.96438039  0.02404563
   0.25000000  0.03561961  0.11881151
   0.25000000  0.53561961  0.09547420
   0.75000000  0.46438039  0.04738294
   0.25000000  0.86199984  0.20908327
   0.75000000  0.13800016  0.21948816
   0.75000000  0.63800016  0.28051184
   0.25000000  0.36199984  0.14805959
   0.75000000  0.96438039  0.16690277
   0.25000000  0.03561961  0.26166865
   0.25000000  0.53561961  0.23833135
   0.75000000  0.46438039  0.19024008
   0.25000000  0.86199984  0.35194041
   0.75000000  0.13800016  0.36234530
   0.75000000  0.63800016  0.42336898
   0.25000000  0.36199984  0.29091673
   0.75000000  0.96438039  0.30975992
   0.25000000  0.03561961  0.40452580
   0.25000000  0.53561961  0.38118849
   0.75000000  0.46438039  0.33309723
   0.25000000  0.04705179  0.05244065
   0.75000000  0.95294821  0.09041649
   0.75000000  0.45294821  0.12386922
   0.25000000  0.54705179  0.01898792
   0.75000000  0.79585510  0.04415736
   0.25000000  0.20414490  0.09869978
   0.25000000  0.70414490  0.11558593
   0.75000000  0.29585510  0.02727121
   0.25000000  0.37241136  0.06463636
   0.75000000  0.62758864  0.07822078
   0.75000000  0.12758864  0.13606493
   0.25000000  0.87241136  0.00679221
   0.25000000  0.04705179  0.19529779
   0.75000000  0.95294821  0.23327364
   0.75000000  0.45294821  0.26672636
   0.25000000  0.54705179  0.16184507
   0.75000000  0.79585510  0.18701450
   0.25000000  0.20414490  0.24155692
   0.25000000  0.70414490  0.25844308
   0.75000000  0.29585510  0.17012835
   0.25000000  0.37241136  0.20749350
   0.75000000  0.62758864  0.22107792
   0.75000000  0.12758864  0.27892208
   0.25000000  0.87241136  0.14964935
   0.25000000  0.04705179  0.33815493
   0.75000000  0.95294821  0.37613078
   0.75000000  0.45294821  0.40958351
   0.25000000  0.54705179  0.30470221
   0.75000000  0.79585510  0.32987165
   0.25000000  0.20414490  0.38441407
   0.25000000  0.70414490  0.40130022
   0.75000000  0.29585510  0.31298550
   0.25000000  0.37241136  0.35035065
   0.75000000  0.62758864  0.36393507
   0.75000000  0.12758864  0.42177922
   0.25000000  0.87241136  0.29250650
Direct configuration=     2
   0.25000000  0.86225383  0.06622553
   0.75000000  0.13770557  0.07659927
   0.75000000  0.63786004  0.13768166
   0.25000000  0.36199984  0.00520245
   0.75000000  0.96438039  0.02404563
   0.25000000  0.03566426  0.11878810
   0.25000000  0.53578576  0.09551793
   0.75000000  0.46438039  0.04738294
   0.25000000  0.86199984  0.20908327
   0.75000000  0.13792500  0.21949289
   0.75000000  0.63806452  0.28050306
   0.25000000  0.36199984  0.14805959
   0.75000000  0.96438039  0.16690277
   0.25000000  0.03556259  0.26169166
   0.25000000  0.53562880  0.23831902
   0.75000000  0.46438039  0.19024008
   0.25000000  0.86229418  0.35197219
   0.75000000  0.13774633  0.36234598
   0.75000000  0.63335189  0.42229852
   0.25000000  0.36199984  0.29091673
   0.75000000  0.96433549  0.30978326
   0.25000000  0.03863898  0.40472714
   0.25000000  0.53176920  0.38139586
   0.75000000  0.46421424  0.33305365
   0.25000000  0.04713060  0.05254765
   0.75000000  0.95301497  0.09045679
   0.75000000  0.45300701  0.12385562
   0.25000000  0.54288873  0.01874578
   0.75000000  0.79700963  0.04409263
   0.25000000  0.20420537  0.09871588
   0.25000000  0.70400455  0.11555513
   0.75000000  0.29289333  0.02672728
   0.25000000  0.37100230  0.06457402
   0.75000000  0.62744791  0.07817803
   0.75000000  0.12759479  0.13608252
   0.25000000  0.87427915  0.00695492
   0.25000000  0.04705326  0.19530279
   0.75000000  0.95294657  0.23326863
   0.75000000  0.45284120  0.26674504
   0.25000000  0.54715864  0.16182635
   0.75000000  0.79577273  0.18702460
   0.25000000  0.20422781  0.24154687
   0.25000000  0.70416809  0.25845363
   0.75000000  0.29583243  0.17011772
   0.25000000  0.37244892  0.20748601
   0.75000000  0.62755112  0.22108535
   0.75000000  0.12762481  0.27891481
   0.25000000  0.87237505  0.14965669
   0.25000000  0.04698493  0.33811469
   0.75000000  0.95286926  0.37602375
   0.75000000  0.45711118  0.40982563
   0.25000000  0.54699284  0.30471583
   0.75000000  0.79579469  0.32985565
   0.25000000  0.20299108  0.38447877
   0.25000000  0.70710635  0.40184404
   0.75000000  0.29599613  0.31301632
   0.25000000  0.37255169  0.35039337
   0.75000000  0.62899805  0.36399737
   0.75000000  0.12572052  0.42161652
   0.25000000  0.87240534  0.29248897
Direct configuration=     3
   0.25000000  0.86236388  0.06622527
   0.75000000  0.13757793  0.07658552
   0.75000000  0.63779933  0.13769335
   0.25000000  0.36199984  0.00520245
   0.75000000  0.96438039  0.02404563
   0.25000000  0.03568360  0.11877796
   0.25000000  0.53585776  0.09553688
   0.75000000  0.46438039  0.04738294
   0.25000000  0.86199984  0.20908327
   0.75000000  0.13789244  0.21949494
   0.75000000  0.63809240  0.28049925
   0.25000000  0.36199984  0.14805959
   0.75000000  0.96438039  0.16690277
   0.25000000  0.03553788  0.26170163
   0.25000000  0.53563278  0.23831368
   0.75000000  0.46438039  0.19024008
   0.25000000  0.86242171  0.35198596
   0.75000000  0.13763634  0.36234628
   0.75000000  0.63133778  0.42183468
   0.25000000  0.36199984  0.29091673
   0.75000000  0.96431603  0.30979337
   0.25000000  0.03994729  0.40481438
   0.25000000  0.53010081  0.38148572
   0.75000000  0.46414225  0.33303477
   0.25000000  0.04716474  0.05259401
   0.75000000  0.95304390  0.09047425
   0.75000000  0.45303250  0.12384972
   0.25000000  0.54108487  0.01864086
   0.75000000  0.79750989  0.04406459
   0.25000000  0.20423157  0.09872285
   0.25000000  0.70394373  0.11554178
   0.75000000  0.29160999  0.02649160
   0.25000000  0.37039176  0.06454701
   0.75000000  0.62738693  0.07815950
   0.75000000  0.12759745  0.13609014
   0.25000000  0.87508846  0.00702542
   0.25000000  0.04705390  0.19530496
   0.75000000  0.95294587  0.23326646
   0.75000000  0.45279484  0.26675314
   0.25000000  0.54720494  0.16181824
   0.75000000  0.79573705  0.18702897
   0.25000000  0.20426373  0.24154252
   0.25000000  0.70417814  0.25845820
   0.75000000  0.29582261  0.17011311
   0.25000000  0.37246520  0.20748276
   0.75000000  0.62753486  0.22108857
   0.75000000  0.12764049  0.27891166
   0.25000000  0.87235931  0.14965987
   0.25000000  0.04695597  0.33809725
   0.75000000  0.95283506  0.37597737
   0.75000000  0.45891501  0.40993054
   0.25000000  0.54696729  0.30472174
   0.75000000  0.79576852  0.32984872
   0.25000000  0.20249113  0.38450680
   0.25000000  0.70838956  0.40207967
   0.75000000  0.29605724  0.31302967
   0.25000000  0.37261249  0.35041188
   0.75000000  0.62960875  0.36402436
   0.75000000  0.12491107  0.42154602
   0.25000000  0.87240272  0.29248138
Direct configuration=     4
   0.25000000  0.86261933  0.06624170
   0.75000000  0.13740094  0.07655525
   0.75000000  0.63766820  0.13772172
   0.25000000  0.36199984  0.00520245
   0.75000000  0.96438039  0.02404563
   0.25000000  0.03584892  0.11875479
   0.25000000  0.53583013  0.09557184
   0.75000000  0.46438039  0.04738294
   0.25000000  0.86199984  0.20908327
   0.75000000  0.13784102  0.21950455
   0.75000000  0.63814421  0.28049636
   0.25000000  0.36199984  0.14805959
   0.75000000  0.96438039  0.16690277
   0.25000000  0.03551146  0.26172712
   0.25000000  0.53562701  0.23830393
   0.75000000  0.46438039  0.19024008
   0.25000000  0.86259454  0.35205339
   0.75000000  0.13704310  0.36231290
   0.75000000  0.63314743  0.42156097
   0.25000000  0.36199984  0.29091673
   0.75000000  0.96408953  0.30981743
   0.25000000  0.04080943  0.40485841
   0.25000000  0.52936697  0.38149615
   0.75000000  0.46455676  0.33301689
   0.25000000  0.04746208  0.05271407
   0.75000000  0.95296354  0.09052428
   0.75000000  0.45306811  0.12383124
   0.25000000  0.53796172  0.01846849
   0.75000000  0.79848367  0.04402388
   0.25000000  0.20423599  0.09874127
   0.25000000  0.70389997  0.11551735
   0.75000000  0.28900438  0.02599511
   0.25000000  0.36908385  0.06443673
   0.75000000  0.62712278  0.07807943
   0.75000000  0.12755894  0.13611083
   0.25000000  0.87683666  0.00711517
   0.25000000  0.04702537  0.19530666
   0.75000000  0.95291333  0.23326207
   0.75000000  0.45266406  0.26678241
   0.25000000  0.54734932  0.16179258
   0.75000000  0.79565289  0.18703911
   0.25000000  0.20431054  0.24153295
   0.25000000  0.70418492  0.25846417
   0.75000000  0.29582939  0.17010255
   0.25000000  0.37252540  0.20747179
   0.75000000  0.62750153  0.22109474
   0.75000000  0.12770036  0.27890357
   0.25000000  0.87229795  0.14966952
   0.25000000  0.04716076  0.33805895
   0.75000000  0.95262633  0.37585027
   0.75000000  0.45622861  0.40967101
   0.25000000  0.54691908  0.30474206
   0.75000000  0.79578984  0.32982059
   0.25000000  0.20235755  0.38449774
   0.25000000  0.71003934  0.40223255
   0.75000000  0.29591840  0.31305265
   0.25000000  0.37276247  0.35051508
   0.75000000  0.62939441  0.36428911
   0.75000000  0.12437333  0.42164991
   0.25000000  0.87246689  0.29245778
Direct configuration=     5
   0.25000000  0.86284692  0.06625633
   0.75000000  0.13724325  0.07652827
   0.75000000  0.63755137  0.13774700
   0.25000000  0.36199984  0.00520245
   0.75000000  0.96438039  0.02404563
   0.25000000  0.03599620  0.11873414
   0.25000000  0.53580551  0.09560299
   0.75000000  0.46438039  0.04738294
   0.25000000  0.86199984  0.20908327
   0.75000000  0.13779522  0.21951311
   0.75000000  0.63819036  0.28049379
   0.25000000  0.36199984  0.14805959
   0.75000000  0.96438039  0.16690277
   0.25000000  0.03548792  0.26174982
   0.25000000  0.53562188  0.23829524
   0.75000000  0.46438039  0.19024008
   0.25000000  0.86274852  0.35211347
   0.75000000  0.13651455  0.36228316
   0.75000000  0.63475973  0.42131710
   0.25000000  0.36199984  0.29091673
   0.75000000  0.96388772  0.30983887
   0.25000000  0.04157755  0.40489764
   0.25000000  0.52871316  0.38150545
   0.75000000  0.46492607  0.33300096
   0.25000000  0.04772700  0.05282104
   0.75000000  0.95289193  0.09056886
   0.75000000  0.45309984  0.12381478
   0.25000000  0.53517914  0.01831492
   0.75000000  0.79935125  0.04398761
   0.25000000  0.20423992  0.09875769
   0.25000000  0.70386097  0.11549558
   0.75000000  0.28668291  0.02555277
   0.25000000  0.36791858  0.06433847
   0.75000000  0.62688743  0.07800809
   0.75000000  0.12752463  0.13612926
   0.25000000  0.87839422  0.00719513
   0.25000000  0.04699995  0.19530817
   0.75000000  0.95288434  0.23325816
   0.75000000  0.45254754  0.26680849
   0.25000000  0.54747796  0.16176971
   0.75000000  0.79557792  0.18704814
   0.25000000  0.20435224  0.24152443
   0.25000000  0.70419096  0.25846949
   0.75000000  0.29583542  0.17009315
   0.25000000  0.37257903  0.20746201
   0.75000000  0.62747184  0.22110023
   0.75000000  0.12775370  0.27889637
   0.25000000  0.87224328  0.14967811
   0.25000000  0.04734323  0.33802483
   0.75000000  0.95244037  0.37573703
   0.75000000  0.45383517  0.40943979
   0.25000000  0.54687612  0.30476017
   0.75000000  0.79580883  0.32979552
   0.25000000  0.20223854  0.38448967
   0.25000000  0.71150922  0.40236876
   0.75000000  0.29579471  0.31307313
   0.25000000  0.37289610  0.35060703
   0.75000000  0.62920345  0.36452499
   0.75000000  0.12389423  0.42174248
   0.25000000  0.87252406  0.29243676
Direct configuration=     6
   0.25000000  0.86311659  0.06629727
   0.75000000  0.13717959  0.07651570
   0.75000000  0.63749455  0.13776342
   0.25000000  0.36199984  0.00520245
   0.75000000  0.96438039  0.02404563
   0.25000000  0.03628110  0.11870931
   0.25000000  0.53558841  0.09560537
   0.75000000  0.46438039  0.04738294
   0.25000000  0.86199984  0.20908327
   0.75000000  0.13775567  0.21952547
   0.75000000  0.63822240  0.28049293
   0.25000000  0.36199984  0.14805959
   0.75000000  0.96438039  0.16690277
   0.25000000  0.03551480  0.26177451
   0.25000000  0.53556796  0.23829142
   0.75000000  0.46438039  0.19024008
   0.25000000  0.86271378  0.35213174
   0.75000000  0.13622187  0.36220109
   0.75000000  0.63352418  0.42112985
   0.25000000  0.36199984  0.29091673
   0.75000000  0.96353368  0.30987073
   0.25000000  0.04129465  0.40488623
   0.25000000  0.52840064  0.38154570
   0.75000000  0.46535530  0.33304931
   0.25000000  0.04829397  0.05294585
   0.75000000  0.95270953  0.09061851
   0.75000000  0.45309421  0.12379143
   0.25000000  0.53542978  0.01839267
   0.75000000  0.79976990  0.04400501
   0.25000000  0.20422020  0.09877855
   0.25000000  0.70386807  0.11547730
   0.75000000  0.28474891  0.02520391
   0.25000000  0.36694662  0.06417481
   0.75000000  0.62633648  0.07789159
   0.75000000  0.12745084  0.13616328
   0.25000000  0.87963566  0.00712804
   0.25000000  0.04695304  0.19530827
   0.75000000  0.95283440  0.23326138
   0.75000000  0.45244404  0.26684678
   0.25000000  0.54763856  0.16173971
   0.75000000  0.79550278  0.18706008
   0.25000000  0.20435013  0.24151820
   0.25000000  0.70415720  0.25847322
   0.75000000  0.29589609  0.17008563
   0.25000000  0.37265037  0.20744959
   0.75000000  0.62744810  0.22110631
   0.75000000  0.12789027  0.27888788
   0.25000000  0.87214496  0.14969473
   0.25000000  0.04754954  0.33799546
   0.75000000  0.95179998  0.37564872
   0.75000000  0.45407925  0.40923112
   0.25000000  0.54681784  0.30479321
   0.75000000  0.79585336  0.32979807
   0.25000000  0.20271021  0.38442151
   0.25000000  0.71263924  0.40224457
   0.75000000  0.29580278  0.31312189
   0.25000000  0.37337516  0.35072180
   0.75000000  0.62898131  0.36476180
   0.75000000  0.12397862  0.42200150
   0.25000000  0.87263145  0.29239923
Direct configuration=     7
   0.25000000  0.86354502  0.06636231
   0.75000000  0.13707846  0.07649572
   0.75000000  0.63740429  0.13778952
   0.25000000  0.36199984  0.00520245
   0.75000000  0.96438039  0.02404563
   0.25000000  0.03673371  0.11866985
   0.25000000  0.53524350  0.09560914
   0.75000000  0.46438039  0.04738294
   0.25000000  0.86199984  0.20908327
   0.75000000  0.13769284  0.21954509
   0.75000000  0.63827330  0.28049156
   0.25000000  0.36199984  0.14805959
   0.75000000  0.96438039  0.16690277
   0.25000000  0.03555750  0.26181372
   0.25000000  0.53548230  0.23828535
   0.75000000  0.46438039  0.19024008
   0.25000000  0.86265859  0.35216076
   0.75000000  0.13575689  0.36207070
   0.75000000  0.63156129  0.42083236
   0.25000000  0.36199984  0.29091673
   0.75000000  0.96297122  0.30992135
   0.25000000  0.04084521  0.40486809
   0.25000000  0.52790413  0.38160964
   0.75000000  0.46603722  0.33312613
   0.25000000  0.04919472  0.05314414
   0.75000000  0.95241974  0.09069739
   0.75000000  0.45308526  0.12375432
   0.25000000  0.53582796  0.01851620
   0.75000000  0.80043500  0.04403264
   0.25000000  0.20418886  0.09881169
   0.25000000  0.70387935  0.11544825
   0.75000000  0.28167638  0.02464968
   0.25000000  0.36540249  0.06391481
   0.75000000  0.62546118  0.07770652
   0.75000000  0.12733362  0.13621733
   0.25000000  0.88160792  0.00702144
   0.25000000  0.04687852  0.19530842
   0.75000000  0.95275506  0.23326649
   0.75000000  0.45227960  0.26690762
   0.25000000  0.54789371  0.16169203
   0.75000000  0.79538340  0.18707904
   0.25000000  0.20434677  0.24150830
   0.25000000  0.70410356  0.25847916
   0.75000000  0.29599248  0.17007369
   0.25000000  0.37276370  0.20742986
   0.75000000  0.62741038  0.22111595
   0.75000000  0.12810724  0.27887441
   0.25000000  0.87198875  0.14972115
   0.25000000  0.04787730  0.33794880
   0.75000000  0.95078259  0.37550842
   0.75000000  0.45446702  0.40889960
   0.25000000  0.54672526  0.30484570
   0.75000000  0.79592409  0.32980214
   0.25000000  0.20345955  0.38431323
   0.25000000  0.71443452  0.40204726
   0.75000000  0.29581559  0.31319937
   0.25000000  0.37413625  0.35090414
   0.75000000  0.62862839  0.36513802
   0.75000000  0.12411267  0.42241301
   0.25000000  0.87280207  0.29233961
Direct configuration=     8
   0.25000000  0.86405223  0.06644170
   0.75000000  0.13712538  0.07653746
   0.75000000  0.63739719  0.13778378
   0.25000000  0.36199984  0.00520245
   0.75000000  0.96438039  0.02404563
   0.25000000  0.03710985  0.11865607
   0.25000000  0.53483000  0.09557409
   0.75000000  0.46438039  0.04738294
   0.25000000  0.86199984  0.20908327
   0.75000000  0.13757447  0.21956636
   0.75000000  0.63826625  0.28051602
   0.25000000  0.36199984  0.14805959
   0.75000000  0.96438039  0.16690277
   0.25000000  0.03566456  0.26184431
   0.25000000  0.53540065  0.23829438
   0.75000000  0.46438039  0.19024008
   0.25000000  0.86259758  0.35211496
   0.75000000  0.13560274  0.36199027
   0.75000000  0.63170895  0.42071642
   0.25000000  0.36199984  0.29091673
   0.75000000  0.96263582  0.30993704
   0.25000000  0.04239041  0.40505760
   0.25000000  0.52804586  0.38168687
   0.75000000  0.46635219  0.33324534
   0.25000000  0.04996611  0.05328916
   0.75000000  0.95225800  0.09074899
   0.75000000  0.45310060  0.12371456
   0.25000000  0.53692443  0.01879444
   0.75000000  0.80038368  0.04411419
   0.25000000  0.20437280  0.09883887
   0.25000000  0.70367950  0.11538819
   0.75000000  0.28038728  0.02434451
   0.25000000  0.36419401  0.06369739
   0.75000000  0.62425922  0.07750797
   0.75000000  0.12723232  0.13628442
   0.25000000  0.88287830  0.00676961
   0.25000000  0.04682066  0.19530307
   0.75000000  0.95271334  0.23327758
   0.75000000  0.45220231  0.26695744
   0.25000000  0.54809876  0.16164357
   0.75000000  0.79532282  0.18709353
   0.25000000  0.20432784  0.24150503
   0.25000000  0.70395968  0.25847435
   0.75000000  0.29610411  0.17006506
   0.25000000  0.37283120  0.20741126
   0.75000000  0.62733797  0.22112700
   0.75000000  0.12840309  0.27887220
   0.25000000  0.87178390  0.14974934
   0.25000000  0.04770279  0.33791950
   0.75000000  0.95020441  0.37543429
   0.75000000  0.45338448  0.40850185
   0.25000000  0.54668313  0.30489065
   0.75000000  0.79563108  0.32983077
   0.25000000  0.20316153  0.38425740
   0.25000000  0.71441502  0.40181661
   0.75000000  0.29630762  0.31329951
   0.25000000  0.37515443  0.35104231
   0.75000000  0.62882642  0.36529899
   0.75000000  0.12284126  0.42254696
   0.25000000  0.87291868  0.29228184
Direct configuration=     9
   0.25000000  0.86443091  0.06650098
   0.75000000  0.13716041  0.07656861
   0.75000000  0.63739189  0.13777950
   0.25000000  0.36199984  0.00520245
   0.75000000  0.96438039  0.02404563
   0.25000000  0.03739067  0.11864579
   0.25000000  0.53452128  0.09554792
   0.75000000  0.46438039  0.04738294
   0.25000000  0.86199984  0.20908327
   0.75000000  0.13748609  0.21958224
   0.75000000  0.63826098  0.28053427
   0.25000000  0.36199984  0.14805959
   0.75000000  0.96438039  0.16690277
   0.25000000  0.03574449  0.26186714
   0.25000000  0.53533969  0.23830113
   0.75000000  0.46438039  0.19024008
   0.25000000  0.86255203  0.35208077
   0.75000000  0.13548766  0.36193022
   0.75000000  0.63181920  0.42062986
   0.25000000  0.36199984  0.29091673
   0.75000000  0.96238542  0.30994876
   0.25000000  0.04354404  0.40519908
   0.25000000  0.52815167  0.38174453
   0.75000000  0.46658734  0.33333434
   0.25000000  0.05054202  0.05339744
   0.75000000  0.95213724  0.09078752
   0.75000000  0.45311205  0.12368488
   0.25000000  0.53774304  0.01900217
   0.75000000  0.80034536  0.04417508
   0.25000000  0.20451012  0.09885917
   0.25000000  0.70353029  0.11534335
   0.75000000  0.27942485  0.02411667
   0.25000000  0.36329178  0.06353506
   0.75000000  0.62336184  0.07735973
   0.75000000  0.12715669  0.13633451
   0.25000000  0.88382675  0.00658159
   0.25000000  0.04677747  0.19529907
   0.75000000  0.95268220  0.23328585
   0.75000000  0.45214461  0.26699463
   0.25000000  0.54825185  0.16160738
   0.75000000  0.79527759  0.18710434
   0.25000000  0.20431371  0.24150260
   0.25000000  0.70385226  0.25847076
   0.75000000  0.29618745  0.17005863
   0.25000000  0.37288161  0.20739737
   0.75000000  0.62728391  0.22113525
   0.75000000  0.12862396  0.27887055
   0.25000000  0.87163096  0.14977039
   0.25000000  0.04757249  0.33789763
   0.75000000  0.94977274  0.37537894
   0.75000000  0.45257627  0.40820488
   0.25000000  0.54665168  0.30492421
   0.75000000  0.79541232  0.32985214
   0.25000000  0.20293902  0.38421572
   0.25000000  0.71440046  0.40164442
   0.75000000  0.29667497  0.31337428
   0.25000000  0.37591460  0.35114547
   0.75000000  0.62897427  0.36541916
   0.75000000  0.12189203  0.42264698
   0.25000000  0.87300575  0.29223871
Direct configuration=    10
   0.25000000  0.86505870  0.06658250
   0.75000000  0.13748478  0.07666583
   0.75000000  0.63737790  0.13773005
   0.25000000  0.36199984  0.00520245
   0.75000000  0.96438039  0.02404563
   0.25000000  0.03776352  0.11867339
   0.25000000  0.53380160  0.09547997
   0.75000000  0.46438039  0.04738294
   0.25000000  0.86199984  0.20908327
   0.75000000  0.13732876  0.21960363
   0.75000000  0.63819823  0.28060844
   0.25000000  0.36199984  0.14805959
   0.75000000  0.96438039  0.16690277
   0.25000000  0.03591885  0.26189973
   0.25000000  0.53527510  0.23832432
   0.75000000  0.46438039  0.19024008
   0.25000000  0.86218182  0.35208269
   0.75000000  0.13466018  0.36190744
   0.75000000  0.63090457  0.42028674
   0.25000000  0.36199984  0.29091673
   0.75000000  0.96191124  0.30993099
   0.25000000  0.04433213  0.40527388
   0.25000000  0.52817690  0.38179996
   0.75000000  0.46716356  0.33346918
   0.25000000  0.05111035  0.05350028
   0.75000000  0.95217484  0.09084990
   0.75000000  0.45315714  0.12363762
   0.25000000  0.53708906  0.01932296
   0.75000000  0.80017861  0.04427165
   0.25000000  0.20502442  0.09891611
   0.25000000  0.70305111  0.11521387
   0.75000000  0.27935846  0.02392981
   0.25000000  0.36179077  0.06334874
   0.75000000  0.62168225  0.07711252
   0.75000000  0.12704751  0.13642143
   0.25000000  0.88543487  0.00627977
   0.25000000  0.04673259  0.19528899
   0.75000000  0.95261697  0.23331165
   0.75000000  0.45206425  0.26704679
   0.25000000  0.54847028  0.16154073
   0.75000000  0.79525137  0.18711930
   0.25000000  0.20436162  0.24150124
   0.25000000  0.70359258  0.25846459
   0.75000000  0.29629544  0.17004938
   0.25000000  0.37288676  0.20737180
   0.75000000  0.62710629  0.22115180
   0.75000000  0.12904046  0.27888776
   0.25000000  0.87133521  0.14979745
   0.25000000  0.04738644  0.33785670
   0.75000000  0.94996222  0.37530602
   0.75000000  0.45293002  0.40793013
   0.25000000  0.54668372  0.30494244
   0.75000000  0.79484957  0.32981502
   0.25000000  0.20273559  0.38415892
   0.25000000  0.71312382  0.40148750
   0.75000000  0.29746406  0.31348558
   0.25000000  0.37694153  0.35130536
   0.75000000  0.63017730  0.36540007
   0.75000000  0.12112432  0.42294049
   0.25000000  0.87313408  0.29217759
Direct configuration=    11
   0.25000000  0.86556108  0.06664774
   0.75000000  0.13774434  0.07674363
   0.75000000  0.63736671  0.13769048
   0.25000000  0.36199984  0.00520245
   0.75000000  0.96438039  0.02404563
   0.25000000  0.03806189  0.11869547
   0.25000000  0.53322570  0.09542559
   0.75000000  0.46438039  0.04738294
   0.25000000  0.86199984  0.20908327
   0.75000000  0.13720287  0.21962074
   0.75000000  0.63814801  0.28066779
   0.25000000  0.36199984  0.14805959
   0.75000000  0.96438039  0.16690277
   0.25000000  0.03605838  0.26192581
   0.25000000  0.53522342  0.23834289
   0.75000000  0.46438039  0.19024008
   0.25000000  0.86188557  0.35208423
   0.75000000  0.13399802  0.36188920
   0.75000000  0.63017266  0.42001217
   0.25000000  0.36199984  0.29091673
   0.75000000  0.96153178  0.30991677
   0.25000000  0.04496277  0.40533373
   0.25000000  0.52819709  0.38184431
   0.75000000  0.46762467  0.33357708
   0.25000000  0.05156514  0.05358259
   0.75000000  0.95220493  0.09089982
   0.75000000  0.45319322  0.12359980
   0.25000000  0.53656573  0.01957966
   0.75000000  0.80004518  0.04434894
   0.25000000  0.20543597  0.09896167
   0.25000000  0.70266766  0.11511026
   0.75000000  0.27930533  0.02378029
   0.25000000  0.36058963  0.06319964
   0.75000000  0.62033821  0.07691470
   0.75000000  0.12696014  0.13649098
   0.25000000  0.88672173  0.00603824
   0.25000000  0.04669668  0.19528093
   0.75000000  0.95256478  0.23333229
   0.75000000  0.45199995  0.26708852
   0.25000000  0.54864507  0.16148739
   0.75000000  0.79523039  0.18713128
   0.25000000  0.20439995  0.24150015
   0.25000000  0.70338478  0.25845965
   0.75000000  0.29638186  0.17004198
   0.25000000  0.37289088  0.20735134
   0.75000000  0.62696415  0.22116505
   0.75000000  0.12937374  0.27890152
   0.25000000  0.87109856  0.14981910
   0.25000000  0.04723756  0.33782395
   0.75000000  0.95011384  0.37524766
   0.75000000  0.45321310  0.40771026
   0.25000000  0.54670937  0.30495704
   0.75000000  0.79439924  0.32978531
   0.25000000  0.20257279  0.38411346
   0.25000000  0.71210222  0.40136194
   0.75000000  0.29809550  0.31357464
   0.25000000  0.37776329  0.35143330
   0.75000000  0.63114000  0.36538479
   0.75000000  0.12050998  0.42317538
   0.25000000  0.87323677  0.29212869
Direct configuration=    12
   0.25000000  0.86613919  0.06671049
   0.75000000  0.13839129  0.07685824
   0.75000000  0.63737248  0.13757027
   0.25000000  0.36199984  0.00520245
   0.75000000  0.96438039  0.02404563
   0.25000000  0.03839470  0.11877773
   0.25000000  0.53190115  0.09531809
   0.75000000  0.46438039  0.04738294
   0.25000000  0.86199984  0.20908327
   0.75000000  0.13704111  0.21964275
   0.75000000  0.63798503  0.28076924
   0.25000000  0.36199984  0.14805959
   0.75000000  0.96438039  0.16690277
   0.25000000  0.03644239  0.26196441
   0.25000000  0.53514371  0.23839442
   0.75000000  0.46438039  0.19024008
   0.25000000  0.86129569  0.35206853
   0.75000000  0.13365040  0.36178912
   0.75000000  0.63041405  0.41990889
   0.25000000  0.36199984  0.29091673
   0.75000000  0.96109121  0.30988732
   0.25000000  0.04476383  0.40538018
   0.25000000  0.52858571  0.38157004
   0.75000000  0.46885627  0.33371714
   0.25000000  0.05192551  0.05362769
   0.75000000  0.95259992  0.09100110
   0.75000000  0.45307434  0.12353961
   0.25000000  0.53467040  0.01990376
   0.75000000  0.80026810  0.04439638
   0.25000000  0.20626128  0.09909538
   0.25000000  0.70198288  0.11489711
   0.75000000  0.27978758  0.02374476
   0.25000000  0.35873632  0.06305709
   0.75000000  0.61835845  0.07666773
   0.75000000  0.12692569  0.13659300
   0.25000000  0.88923702  0.00583423
   0.25000000  0.04665918  0.19526819
   0.75000000  0.95246136  0.23337516
   0.75000000  0.45195553  0.26715398
   0.25000000  0.54890354  0.16139018
   0.75000000  0.79522381  0.18714512
   0.25000000  0.20454909  0.24149776
   0.25000000  0.70304073  0.25848895
   0.75000000  0.29644571  0.17002700
   0.25000000  0.37279084  0.20730685
   0.75000000  0.62665403  0.22117562
   0.75000000  0.12979812  0.27893685
   0.25000000  0.87077288  0.14983192
   0.25000000  0.04677312  0.33778933
   0.75000000  0.94971949  0.37527991
   0.75000000  0.45161932  0.40741352
   0.25000000  0.54695925  0.30492617
   0.75000000  0.79371336  0.32970971
   0.25000000  0.20284558  0.38409164
   0.25000000  0.71114592  0.40112618
   0.75000000  0.29886994  0.31364972
   0.25000000  0.37855375  0.35158851
   0.75000000  0.63260827  0.36530706
   0.75000000  0.12014429  0.42355951
   0.25000000  0.87317060  0.29204721
Direct configuration=    13
   0.25000000  0.86627911  0.06672568
   0.75000000  0.13854789  0.07688598
   0.75000000  0.63737387  0.13754117
   0.25000000  0.36199984  0.00520245
   0.75000000  0.96438039  0.02404563
   0.25000000  0.03847526  0.11879765
   0.25000000  0.53158054  0.09529207
   0.75000000  0.46438039  0.04738294
   0.25000000  0.86199984  0.20908327
   0.75000000  0.13700195  0.21964807
   0.75000000  0.63794558  0.28079379
   0.25000000  0.36199984  0.14805959
   0.75000000  0.96438039  0.16690277
   0.25000000  0.03653534  0.26197375
   0.25000000  0.53512442  0.23840689
   0.75000000  0.46438039  0.19024008
   0.25000000  0.86115291  0.35206473
   0.75000000  0.13356626  0.36176490
   0.75000000  0.63047248  0.41988389
   0.25000000  0.36199984  0.29091673
   0.75000000  0.96098457  0.30988019
   0.25000000  0.04471567  0.40539142
   0.25000000  0.52867977  0.38150366
   0.75000000  0.46915438  0.33375105
   0.25000000  0.05201273  0.05363861
   0.75000000  0.95269552  0.09102561
   0.75000000  0.45304556  0.12352505
   0.25000000  0.53421164  0.01998221
   0.75000000  0.80032206  0.04440786
   0.25000000  0.20646104  0.09912774
   0.25000000  0.70181712  0.11484552
   0.75000000  0.27990431  0.02373616
   0.25000000  0.35828773  0.06302259
   0.75000000  0.61787926  0.07660795
   0.75000000  0.12691735  0.13661769
   0.25000000  0.88984584  0.00578485
   0.25000000  0.04665010  0.19526511
   0.75000000  0.95243633  0.23338554
   0.75000000  0.45194478  0.26716982
   0.25000000  0.54896610  0.16136664
   0.75000000  0.79522222  0.18714848
   0.25000000  0.20458519  0.24149718
   0.25000000  0.70295746  0.25849604
   0.75000000  0.29646116  0.17002338
   0.25000000  0.37276662  0.20729608
   0.75000000  0.62657897  0.22117818
   0.75000000  0.12990084  0.27894541
   0.25000000  0.87069406  0.14983503
   0.25000000  0.04666070  0.33778096
   0.75000000  0.94962404  0.37528772
   0.75000000  0.45123354  0.40734170
   0.25000000  0.54701974  0.30491869
   0.75000000  0.79354734  0.32969141
   0.25000000  0.20291161  0.38408636